[SNIPER] (0) Using trace file /home_masters/miz087/workplace/micro_exp/benchmarks/traces/gamess/gamess.trace0
[SNIPER] (1) Using trace file /home_masters/miz087/workplace/micro_exp/benchmarks/traces/gamess/gamess.trace1
[SNIPER] (2) Using trace file /home_masters/miz087/workplace/micro_exp/benchmarks/traces/gamess/gamess.trace2
[SNIPER] (3) Using trace file /home_masters/miz087/workplace/micro_exp/benchmarks/traces/gamess/gamess.trace3
[SNIPER] Start
----------BEGIN_INIT_STATS_MANAGER------------
----------END_INIT_STATS_MANAGER------------
[DvfsManager] Core 0 at 2.66 GHz (global clock 2.66 GHz)
[DvfsManager] Core 1 at 2.66 GHz (global clock 2.66 GHz)
[DvfsManager] Core 2 at 2.66 GHz (global clock 2.66 GHz)
[DvfsManager] Core 3 at 2.66 GHz (global clock 2.66 GHz)
Normal Cache Total set: 16384
[Ramulator config] SpeedEntry: nRFC(130), nREFI(3900), nREFI1B(256)
Each level size: 
32 4 2 2048 8192 
Here we initilize a off-chip model!
[Ramulator config] SpeedEntry: nRFC(130), nREFI(3900), nREFI1B(256)
Each level size: 
1 1 32 16384 8192 
now initialize a stacked dram unison cache
Executing Python script /scratch/miz087/results/isca/10-30-cachesize_cache_cpu_remap0_t104_cs128_spec_gamess/sim.scripts.py
[SNIPER] --------------------------------------------------------------------------------
[SNIPER] Sniper using SIFT/trace-driven frontend
[SNIPER] Running full application in DETAILED mode
[SNIPER] --------------------------------------------------------------------------------

************recordStats once at 0
[Warning] power scale is less than 1, please check!
[Overall Power Consumption] Peak: 0, Dynamic: 0
[Warning] the power of processor is too small, we skip the temperature calculation!
[SNIPER] Enabling performance models

************recordStats once at 0
[Warning] power scale is less than 1, please check!
[Overall Power Consumption] Peak: 0, Dynamic: 0
[Warning] the power of processor is too small, we skip the temperature calculation!
[SNIPER] Setting instrumentation mode to DETAILED
[TRACE:0] [HOOKS] Entering ROI
[TRACE:1] [HOOKS] Entering ROI
[TRACE:3] [HOOKS] Entering ROI
[TRACE:2] [HOOKS] Entering ROI
[TRACE:0]           ******************************************************
[TRACE:0]           *         GAMESS VERSION = 12 DEC 2003 (R2)          *
[TRACE:0]           *             FROM IOWA STATE UNIVERSITY             *
[TRACE:0]           * M.W.SCHMIDT, K.K.BALDRIDGE, J.A.BOATZ, S.T.ELBERT, *
[TRACE:0]           *   M.S.GORDON, J.H.JENSEN, S.KOSEKI, N.MATSUNAGA,   *
[TRACE:0]           *          K.A.NGUYEN, S.J.SU, T.L.WINDUS,           *
[TRACE:0]           *       TOGETHER WITH M.DUPUIS, J.A.MONTGOMERY       *
[TRACE:0]           *         J.COMPUT.CHEM.  14, 1347-1363(1993)        *
[TRACE:0]           **************** SPEC-CPU2006 VERSION ****************
[TRACE:0]      SINCE 1993, STUDENTS AND POSTDOCS WORKING AT IOWA STATE UNIVERSITY
[TRACE:0]      AND ALSO IN THEIR VARIOUS JOBS AFTER LEAVING ISU HAVE MADE IMPORTANT
[TRACE:0]      CONTRIBUTIONS TO THE CODE:
[TRACE:0]      IVANA ADAMOVIC, CHRISTINE AIKENS, ROB BELL, PRADIPTA BANDYOPADHYAY,
[TRACE:0]      BRETT BODE, GALINA CHABAN, WEI CHEN, CHEOL HO CHOI, PAUL DAY,
[TRACE:0]      TIM DUDLEY, DMITRI FEDOROV, GRAHAM FLETCHER, MARK FREITAG,
[TRACE:0]      KURT GLAESEMANN, GRANT MERRILL, HEATHER NETZLOFF, RYAN OLSON,
[TRACE:0]      MIKE PAK, JIM SHOEMAKER, TETSUYA TAKETSUGU, SIMON WEBB.
[TRACE:0]      ADDITIONAL CODE HAS BEEN PROVIDED BY COLLABORATORS IN OTHER GROUPS:
[TRACE:0]      IOWA STATE UNIVERSITY: JOE IVANIC, KLAUS RUEDENBERG
[TRACE:0]      UNIVERSITY OF TOKYO: KIMIHIKO HIRAO, HARUYUKI NAKANO, TAKAHITO
[TRACE:0]           NAKAJIMA, TAKAO TSUNEDA, MUNEAKI KAMIYA, SUSUMU YANAGISAWA
[TRACE:0]      ODENSE UNIVERSITY: FRANK JENSEN
[TRACE:0]      UNIVERSITY OF IOWA: VISVALDAS KAIRYS, HUI LI
[TRACE:0]      NATIONAL INST. OF STANDARDS AND TECHNOLOGY: WALT STEVENS, DAVID GARMER
[TRACE:0]      UNIVERSITY OF PISA: BENEDETTA MENNUCCI, JACOPO TOMASI
[TRACE:0]      UNIVERSITY OF MEMPHIS: HENRY KURTZ, PRAKASHAN KORAMBATH
[TRACE:0]      UNIVERSITY OF ALBERTA: MARIUSZ KLOBUKOWSKI
[TRACE:0]      UNIVERSITY OF NEW ENGLAND: MARK SPACKMAN
[TRACE:0]      MIE UNIVERSITY: HIROAKI UMEDA
[TRACE:0]      MICHIGAN STATE UNIVERSITY: KAROL KOWALSKI, PIOTR PIECUCH
[TRACE:0]      UNIVERSITY OF SILESIA: MONIKA MUSIAL, STANISLAW KUCHARSKI
[TRACE:0]      FACULTES UNIVERSITAIRES NOTRE-DAME DE LA PAIX:
[TRACE:0]           OLIVIER QUINET, BENOIT CHAMPAGNE
[TRACE:0]      UNIVERSITY OF CALIFORNIA - SANTA BARBARA: BERNARD KIRTMAN
[TRACE:0]  EXECUTION OF GAMESS BEGUN 
[TRACE:0]             ECHO OF THE FIRST FEW INPUT CARDS -
[TRACE:0]  INPUT CARD>!   cytosine SCF test...xx AOs                                                  
[TRACE:0]  INPUT CARD>!                                                                               
[TRACE:0]  INPUT CARD>!   The FINAL energy=                                                           
[TRACE:0]  INPUT CARD>!   The Cartesian RMS gradient=                                                 
[TRACE:0]  INPUT CARD>!   This job takes xx seconds on a RS/6000 model 350                            
[TRACE:0]  INPUT CARD>!   This job was run 2/xx/94                                                    
[TRACE:0]  INPUT CARD>!                                                                               
[TRACE:0]  INPUT CARD> $contrl scftyp=rhf runtyp=gradient coord=zmt $end                              
[TRACE:0]  INPUT CARD> $system memory=400000 timlim=99999.0 $end                                      
[TRACE:0]  INPUT CARD> $basis  gbasis=TZV ngauss=6 ndfunc=1 npfunc=1 $end                             
[TRACE:0]  INPUT CARD> $guess  guess=huckel $end                                                      
[TRACE:0]  INPUT CARD> $scf    dirscf=.true. $end                                                     
[TRACE:0]  INPUT CARD> $data                                                                          
[TRACE:0]  INPUT CARD>cytosine...one of the bases found in nucleic acids...RHF/6-31G(d)//RHF/AM1      
[TRACE:0]  INPUT CARD>C1                                                                              
[TRACE:0]  INPUT CARD>C                                                                               
[TRACE:0]  INPUT CARD>C      1   1.4650373                                                            
[TRACE:0]  INPUT CARD>C      2   1.3716299  1   117.7958997                                           
[TRACE:0]  INPUT CARD>N      3   1.3647282  2   121.3155803  1      .3498173  0                       
[TRACE:0]  INPUT CARD>C      4   1.4396187  3   119.9661479  2      .2091058  0                       
[TRACE:0]  INPUT CARD>N      5   1.4011663  3    90.9801250  2      .2114610  0                       
[TRACE:0]  INPUT CARD>O      5   1.2468098  4   115.9883744  3   179.7178226  0                       
[TRACE:2]           ******************************************************
[TRACE:2]           *         GAMESS VERSION = 12 DEC 2003 (R2)          *
[TRACE:2]           *             FROM IOWA STATE UNIVERSITY             *
[TRACE:2]           * M.W.SCHMIDT, K.K.BALDRIDGE, J.A.BOATZ, S.T.ELBERT, *
[TRACE:2]           *   M.S.GORDON, J.H.JENSEN, S.KOSEKI, N.MATSUNAGA,   *
[TRACE:2]           *          K.A.NGUYEN, S.J.SU, T.L.WINDUS,           *
[TRACE:2]           *       TOGETHER WITH M.DUPUIS, J.A.MONTGOMERY       *
[TRACE:2]           *         J.COMPUT.CHEM.  14, 1347-1363(1993)        *
[TRACE:2]           **************** SPEC-CPU2006 VERSION ****************
[TRACE:2]      SINCE 1993, STUDENTS AND POSTDOCS WORKING AT IOWA STATE UNIVERSITY
[TRACE:2]      AND ALSO IN THEIR VARIOUS JOBS AFTER LEAVING ISU HAVE MADE IMPORTANT
[TRACE:2]      CONTRIBUTIONS TO THE CODE:
[TRACE:2]      IVANA ADAMOVIC, CHRISTINE AIKENS, ROB BELL, PRADIPTA BANDYOPADHYAY,
[TRACE:2]      BRETT BODE, GALINA CHABAN, WEI CHEN, CHEOL HO CHOI, PAUL DAY,
[TRACE:2]      TIM DUDLEY, DMITRI FEDOROV, GRAHAM FLETCHER, MARK FREITAG,
[TRACE:2]      KURT GLAESEMANN, GRANT MERRILL, HEATHER NETZLOFF, RYAN OLSON,
[TRACE:2]      MIKE PAK, JIM SHOEMAKER, TETSUYA TAKETSUGU, SIMON WEBB.
[TRACE:2]      ADDITIONAL CODE HAS BEEN PROVIDED BY COLLABORATORS IN OTHER GROUPS:
[TRACE:2]      IOWA STATE UNIVERSITY: JOE IVANIC, KLAUS RUEDENBERG
[TRACE:2]      UNIVERSITY OF TOKYO: KIMIHIKO HIRAO, HARUYUKI NAKANO, TAKAHITO
[TRACE:2]           NAKAJIMA, TAKAO TSUNEDA, MUNEAKI KAMIYA, SUSUMU YANAGISAWA
[TRACE:2]      ODENSE UNIVERSITY: FRANK JENSEN
[TRACE:2]      UNIVERSITY OF IOWA: VISVALDAS KAIRYS, HUI LI
[TRACE:2]      NATIONAL INST. OF STANDARDS AND TECHNOLOGY: WALT STEVENS, DAVID GARMER
[TRACE:2]      UNIVERSITY OF PISA: BENEDETTA MENNUCCI, JACOPO TOMASI
[TRACE:2]      UNIVERSITY OF MEMPHIS: HENRY KURTZ, PRAKASHAN KORAMBATH
[TRACE:2]      UNIVERSITY OF ALBERTA: MARIUSZ KLOBUKOWSKI
[TRACE:2]      UNIVERSITY OF NEW ENGLAND: MARK SPACKMAN
[TRACE:2]      MIE UNIVERSITY: HIROAKI UMEDA
[TRACE:2]      MICHIGAN STATE UNIVERSITY: KAROL KOWALSKI, PIOTR PIECUCH
[TRACE:2]      UNIVERSITY OF SILESIA: MONIKA MUSIAL, STANISLAW KUCHARSKI
[TRACE:2]      FACULTES UNIVERSITAIRES NOTRE-DAME DE LA PAIX:
[TRACE:2]           OLIVIER QUINET, BENOIT CHAMPAGNE
[TRACE:2]      UNIVERSITY OF CALIFORNIA - SANTA BARBARA: BERNARD KIRTMAN
[TRACE:2]  EXECUTION OF GAMESS BEGUN 
[TRACE:2]             ECHO OF THE FIRST FEW INPUT CARDS -
[TRACE:2]  INPUT CARD>!   cytosine SCF test...xx AOs                                                  
[TRACE:2]  INPUT CARD>!                                                                               
[TRACE:2]  INPUT CARD>!   The FINAL energy=                                                           
[TRACE:2]  INPUT CARD>!   The Cartesian RMS gradient=                                                 
[TRACE:2]  INPUT CARD>!   This job takes xx seconds on a RS/6000 model 350                            
[TRACE:2]  INPUT CARD>!   This job was run 2/xx/94                                                    
[TRACE:2]  INPUT CARD>!                                                                               
[TRACE:2]  INPUT CARD> $contrl scftyp=rhf runtyp=gradient coord=zmt $end                              
[TRACE:2]  INPUT CARD> $system memory=400000 timlim=99999.0 $end                                      
[TRACE:2]  INPUT CARD> $basis  gbasis=TZV ngauss=6 ndfunc=1 npfunc=1 $end                             
[TRACE:2]  INPUT CARD> $guess  guess=huckel $end                                                      
[TRACE:2]  INPUT CARD> $scf    dirscf=.true. $end                                                     
[TRACE:2]  INPUT CARD> $data                                                                          
[TRACE:2]  INPUT CARD>cytosine...one of the bases found in nucleic acids...RHF/6-31G(d)//RHF/AM1      
[TRACE:2]  INPUT CARD>C1                                                                              
[TRACE:2]  INPUT CARD>C                                                                               
[TRACE:2]  INPUT CARD>C      1   1.4650373                                                            
[TRACE:2]  INPUT CARD>C      2   1.3716299  1   117.7958997                                           
[TRACE:2]  INPUT CARD>N      3   1.3647282  2   121.3155803  1      .3498173  0                       
[TRACE:2]  INPUT CARD>C      4   1.4396187  3   119.9661479  2      .2091058  0                       
[TRACE:2]  INPUT CARD>N      5   1.4011663  3    90.9801250  2      .2114610  0                       
[TRACE:2]  INPUT CARD>O      5   1.2468098  4   115.9883744  3   179.7178226  0                       
[TRACE:1]           ******************************************************
[TRACE:1]           *         GAMESS VERSION = 12 DEC 2003 (R2)          *
[TRACE:1]           *             FROM IOWA STATE UNIVERSITY             *
[TRACE:1]           * M.W.SCHMIDT, K.K.BALDRIDGE, J.A.BOATZ, S.T.ELBERT, *
[TRACE:1]           *   M.S.GORDON, J.H.JENSEN, S.KOSEKI, N.MATSUNAGA,   *
[TRACE:1]           *          K.A.NGUYEN, S.J.SU, T.L.WINDUS,           *
[TRACE:1]           *       TOGETHER WITH M.DUPUIS, J.A.MONTGOMERY       *
[TRACE:1]           *         J.COMPUT.CHEM.  14, 1347-1363(1993)        *
[TRACE:1]           **************** SPEC-CPU2006 VERSION ****************
[TRACE:1]      SINCE 1993, STUDENTS AND POSTDOCS WORKING AT IOWA STATE UNIVERSITY
[TRACE:1]      AND ALSO IN THEIR VARIOUS JOBS AFTER LEAVING ISU HAVE MADE IMPORTANT
[TRACE:1]      CONTRIBUTIONS TO THE CODE:
[TRACE:1]      IVANA ADAMOVIC, CHRISTINE AIKENS, ROB BELL, PRADIPTA BANDYOPADHYAY,
[TRACE:1]      BRETT BODE, GALINA CHABAN, WEI CHEN, CHEOL HO CHOI, PAUL DAY,
[TRACE:1]      TIM DUDLEY, DMITRI FEDOROV, GRAHAM FLETCHER, MARK FREITAG,
[TRACE:1]      KURT GLAESEMANN, GRANT MERRILL, HEATHER NETZLOFF, RYAN OLSON,
[TRACE:1]      MIKE PAK, JIM SHOEMAKER, TETSUYA TAKETSUGU, SIMON WEBB.
[TRACE:1]      ADDITIONAL CODE HAS BEEN PROVIDED BY COLLABORATORS IN OTHER GROUPS:
[TRACE:1]      IOWA STATE UNIVERSITY: JOE IVANIC, KLAUS RUEDENBERG
[TRACE:1]      UNIVERSITY OF TOKYO: KIMIHIKO HIRAO, HARUYUKI NAKANO, TAKAHITO
[TRACE:1]           NAKAJIMA, TAKAO TSUNEDA, MUNEAKI KAMIYA, SUSUMU YANAGISAWA
[TRACE:1]      ODENSE UNIVERSITY: FRANK JENSEN
[TRACE:1]      UNIVERSITY OF IOWA: VISVALDAS KAIRYS, HUI LI
[TRACE:1]      NATIONAL INST. OF STANDARDS AND TECHNOLOGY: WALT STEVENS, DAVID GARMER
[TRACE:1]      UNIVERSITY OF PISA: BENEDETTA MENNUCCI, JACOPO TOMASI
[TRACE:1]      UNIVERSITY OF MEMPHIS: HENRY KURTZ, PRAKASHAN KORAMBATH
[TRACE:1]      UNIVERSITY OF ALBERTA: MARIUSZ KLOBUKOWSKI
[TRACE:1]      UNIVERSITY OF NEW ENGLAND: MARK SPACKMAN
[TRACE:1]      MIE UNIVERSITY: HIROAKI UMEDA
[TRACE:1]      MICHIGAN STATE UNIVERSITY: KAROL KOWALSKI, PIOTR PIECUCH
[TRACE:1]      UNIVERSITY OF SILESIA: MONIKA MUSIAL, STANISLAW KUCHARSKI
[TRACE:1]      FACULTES UNIVERSITAIRES NOTRE-DAME DE LA PAIX:
[TRACE:1]           OLIVIER QUINET, BENOIT CHAMPAGNE
[TRACE:1]      UNIVERSITY OF CALIFORNIA - SANTA BARBARA: BERNARD KIRTMAN
[TRACE:1]  EXECUTION OF GAMESS BEGUN 
[TRACE:1]             ECHO OF THE FIRST FEW INPUT CARDS -
[TRACE:1]  INPUT CARD>!   cytosine SCF test...xx AOs                                                  
[TRACE:1]  INPUT CARD>!                                                                               
[TRACE:1]  INPUT CARD>!   The FINAL energy=                                                           
[TRACE:1]  INPUT CARD>!   The Cartesian RMS gradient=                                                 
[TRACE:1]  INPUT CARD>!   This job takes xx seconds on a RS/6000 model 350                            
[TRACE:1]  INPUT CARD>!   This job was run 2/xx/94                                                    
[TRACE:1]  INPUT CARD>!                                                                               
[TRACE:1]  INPUT CARD> $contrl scftyp=rhf runtyp=gradient coord=zmt $end                              
[TRACE:1]  INPUT CARD> $system memory=400000 timlim=99999.0 $end                                      
[TRACE:1]  INPUT CARD> $basis  gbasis=TZV ngauss=6 ndfunc=1 npfunc=1 $end                             
[TRACE:1]  INPUT CARD> $guess  guess=huckel $end                                                      
[TRACE:1]  INPUT CARD> $scf    dirscf=.true. $end                                                     
[TRACE:1]  INPUT CARD> $data                                                                          
[TRACE:1]  INPUT CARD>cytosine...one of the bases found in nucleic acids...RHF/6-31G(d)//RHF/AM1      
[TRACE:1]  INPUT CARD>C1                                                                              
[TRACE:1]  INPUT CARD>C                                                                               
[TRACE:1]  INPUT CARD>C      1   1.4650373                                                            
[TRACE:1]  INPUT CARD>C      2   1.3716299  1   117.7958997                                           
[TRACE:1]  INPUT CARD>N      3   1.3647282  2   121.3155803  1      .3498173  0                       
[TRACE:1]  INPUT CARD>C      4   1.4396187  3   119.9661479  2      .2091058  0                       
[TRACE:1]  INPUT CARD>N      5   1.4011663  3    90.9801250  2      .2114610  0                       
[TRACE:1]  INPUT CARD>O      5   1.2468098  4   115.9883744  3   179.7178226  0                       
[TRACE:3]           ******************************************************
[TRACE:3]           *         GAMESS VERSION = 12 DEC 2003 (R2)          *
[TRACE:3]           *             FROM IOWA STATE UNIVERSITY             *
[TRACE:3]           * M.W.SCHMIDT, K.K.BALDRIDGE, J.A.BOATZ, S.T.ELBERT, *
[TRACE:3]           *   M.S.GORDON, J.H.JENSEN, S.KOSEKI, N.MATSUNAGA,   *
[TRACE:3]           *          K.A.NGUYEN, S.J.SU, T.L.WINDUS,           *
[TRACE:3]           *       TOGETHER WITH M.DUPUIS, J.A.MONTGOMERY       *
[TRACE:3]           *         J.COMPUT.CHEM.  14, 1347-1363(1993)        *
[TRACE:3]           **************** SPEC-CPU2006 VERSION ****************
[TRACE:3]      SINCE 1993, STUDENTS AND POSTDOCS WORKING AT IOWA STATE UNIVERSITY
[TRACE:3]      AND ALSO IN THEIR VARIOUS JOBS AFTER LEAVING ISU HAVE MADE IMPORTANT
[TRACE:3]      CONTRIBUTIONS TO THE CODE:
[TRACE:3]      IVANA ADAMOVIC, CHRISTINE AIKENS, ROB BELL, PRADIPTA BANDYOPADHYAY,
[TRACE:3]      BRETT BODE, GALINA CHABAN, WEI CHEN, CHEOL HO CHOI, PAUL DAY,
[TRACE:3]      TIM DUDLEY, DMITRI FEDOROV, GRAHAM FLETCHER, MARK FREITAG,
[TRACE:3]      KURT GLAESEMANN, GRANT MERRILL, HEATHER NETZLOFF, RYAN OLSON,
[TRACE:3]      MIKE PAK, JIM SHOEMAKER, TETSUYA TAKETSUGU, SIMON WEBB.
[TRACE:3]      ADDITIONAL CODE HAS BEEN PROVIDED BY COLLABORATORS IN OTHER GROUPS:
[TRACE:3]      IOWA STATE UNIVERSITY: JOE IVANIC, KLAUS RUEDENBERG
[TRACE:3]      UNIVERSITY OF TOKYO: KIMIHIKO HIRAO, HARUYUKI NAKANO, TAKAHITO
[TRACE:3]           NAKAJIMA, TAKAO TSUNEDA, MUNEAKI KAMIYA, SUSUMU YANAGISAWA
[TRACE:3]      ODENSE UNIVERSITY: FRANK JENSEN
[TRACE:3]      UNIVERSITY OF IOWA: VISVALDAS KAIRYS, HUI LI
[TRACE:3]      NATIONAL INST. OF STANDARDS AND TECHNOLOGY: WALT STEVENS, DAVID GARMER
[TRACE:3]      UNIVERSITY OF PISA: BENEDETTA MENNUCCI, JACOPO TOMASI
[TRACE:3]      UNIVERSITY OF MEMPHIS: HENRY KURTZ, PRAKASHAN KORAMBATH
[TRACE:3]      UNIVERSITY OF ALBERTA: MARIUSZ KLOBUKOWSKI
[TRACE:3]      UNIVERSITY OF NEW ENGLAND: MARK SPACKMAN
[TRACE:3]      MIE UNIVERSITY: HIROAKI UMEDA
[TRACE:3]      MICHIGAN STATE UNIVERSITY: KAROL KOWALSKI, PIOTR PIECUCH
[TRACE:3]      UNIVERSITY OF SILESIA: MONIKA MUSIAL, STANISLAW KUCHARSKI
[TRACE:3]      FACULTES UNIVERSITAIRES NOTRE-DAME DE LA PAIX:
[TRACE:3]           OLIVIER QUINET, BENOIT CHAMPAGNE
[TRACE:3]      UNIVERSITY OF CALIFORNIA - SANTA BARBARA: BERNARD KIRTMAN
[TRACE:3]  EXECUTION OF GAMESS BEGUN 
[TRACE:3]             ECHO OF THE FIRST FEW INPUT CARDS -
[TRACE:3]  INPUT CARD>!   cytosine SCF test...xx AOs                                                  
[TRACE:3]  INPUT CARD>!                                                                               
[TRACE:3]  INPUT CARD>!   The FINAL energy=                                                           
[TRACE:3]  INPUT CARD>!   The Cartesian RMS gradient=                                                 
[TRACE:3]  INPUT CARD>!   This job takes xx seconds on a RS/6000 model 350                            
[TRACE:3]  INPUT CARD>!   This job was run 2/xx/94                                                    
[TRACE:3]  INPUT CARD>!                                                                               
[TRACE:3]  INPUT CARD> $contrl scftyp=rhf runtyp=gradient coord=zmt $end                              
[TRACE:3]  INPUT CARD> $system memory=400000 timlim=99999.0 $end                                      
[TRACE:3]  INPUT CARD> $basis  gbasis=TZV ngauss=6 ndfunc=1 npfunc=1 $end                             
[TRACE:3]  INPUT CARD> $guess  guess=huckel $end                                                      
[TRACE:3]  INPUT CARD> $scf    dirscf=.true. $end                                                     
[TRACE:3]  INPUT CARD> $data                                                                          
[TRACE:3]  INPUT CARD>cytosine...one of the bases found in nucleic acids...RHF/6-31G(d)//RHF/AM1      
[TRACE:3]  INPUT CARD>C1                                                                              
[TRACE:3]  INPUT CARD>C                                                                               
[TRACE:3]  INPUT CARD>C      1   1.4650373                                                            
[TRACE:3]  INPUT CARD>C      2   1.3716299  1   117.7958997                                           
[TRACE:3]  INPUT CARD>N      3   1.3647282  2   121.3155803  1      .3498173  0                       
[TRACE:3]  INPUT CARD>C      4   1.4396187  3   119.9661479  2      .2091058  0                       
[TRACE:3]  INPUT CARD>N      5   1.4011663  3    90.9801250  2      .2114610  0                       
[TRACE:3]  INPUT CARD>O      5   1.2468098  4   115.9883744  3   179.7178226  0                       

************recordStats once at 999
[Warning] power scale is less than 1, please check!
[Overall Power Consumption] Peak: 0, Dynamic: 0
[Warning] the power of processor is too small, we skip the temperature calculation!
[TRACE:0]  INPUT CARD>N      1   1.3788003  2   118.0962168  3   176.8645647  0                       
[TRACE:0]  INPUT CARD>H      2   1.0941969  3   121.2004089  4   179.6832397  0                       
[TRACE:0]  INPUT CARD>H      3   1.1066467  4   117.1420349  5  -179.7448468  0                       
[TRACE:0]  INPUT CARD>H      4    .9940077  5   118.5566942  6  -179.8953981  0                       
[TRACE:0]  INPUT CARD>H      8    .9887008  1   117.8840921  2    15.7868234  0                       
[TRACE:0]  INPUT CARD>H      8    .9916901  1   119.8259677  2   173.2680833  0                       
[TRACE:0]  INPUT CARD> $end                                                                           
[TRACE:0]  INPUT CARD>                                                                                
[TRACE:0]  ..... DONE SETTING UP THE RUN .....
[TRACE:0] LOCMEM is    1   1
[TRACE:0]      400000 WORDS OF MEMORY AVAILABLE
[TRACE:0]      BASIS OPTIONS
[TRACE:0]      -------------
[TRACE:0]      GBASIS=TZV          IGAUSS=       0      POLAR=HONDO7  
[TRACE:0]      NDFUNC=       1     NFFUNC=       0     DIFFSP=       F
[TRACE:0]      NPFUNC=       1      DIFFS=       F
[TRACE:0]      RUN TITLE
[TRACE:0]      ---------
[TRACE:0]  cytosine...one of the bases found in nucleic acids...RHF/6-31G(d)//RHF/AM1      
[TRACE:0]  THE POINT GROUP OF THE MOLECULE IS C1      
[TRACE:0]  THE ORDER OF THE PRINCIPAL AXIS IS     0
[TRACE:0]  YOUR FULLY SUBSTITUTED Z-MATRIX IS
[TRACE:0]  C   
[TRACE:0]  C      1   1.4650373
[TRACE:0]  C      2   1.3716299  1  117.7959
[TRACE:0]  N      3   1.3647282  2  121.3156  1    0.3498  0
[TRACE:0]  C      4   1.4396187  3  119.9661  2    0.2091  0
[TRACE:0]  N      5   1.4011663  3   90.9801  2    0.2115  0
[TRACE:0]  O      5   1.2468098  4  115.9884  3  179.7178  0
[TRACE:0]  N      1   1.3788003  2  118.0962  3  176.8646  0
[TRACE:0]  H      2   1.0941969  3  121.2004  4  179.6832  0
[TRACE:0]  H      3   1.1066467  4  117.1420  5 -179.7448  0
[TRACE:0]  H      4   0.9940077  5  118.5567  6 -179.8954  0
[TRACE:0]  H      8   0.9887008  1  117.8841  2   15.7868  0
[TRACE:0]  H      8   0.9916901  1  119.8260  2  173.2681  0
[TRACE:0]  THE MOMENTS OF INERTIA ARE (AMU-ANGSTROM**2)
[TRACE:0]  IXX=   132.254   IYY=   260.759   IZZ=   392.883
[TRACE:0]  ATOM      ATOMIC                      COORDINATES (BOHR)
[TRACE:0]            CHARGE         X                   Y                   Z
[TRACE:0]  C           6.0     2.2669311020       -0.5218552546        0.0208873820
[TRACE:0]  C           6.0     2.0984851111        2.2415330640        0.0238416361
[TRACE:0]  C           6.0    -0.2635520984        3.3085380611       -0.0038847765
[TRACE:0]  N           7.0    -2.3920570783        1.8524273767       -0.0198536711
[TRACE:0]  C           6.0    -2.1831061295       -0.8599413366        0.0009643730
[TRACE:0]  N           7.0     0.2024344587       -2.0082848229        0.0391226293
[TRACE:0]  O           8.0    -4.2153816810       -2.0520661390       -0.0051871457
[TRACE:0]  N           7.0     4.6338080702       -1.6068482056       -0.0770887112
[TRACE:0]  H           1.0     3.8027918449        3.4123646305        0.0268311474
[TRACE:0]  H           1.0    -0.5267939208        5.3831438242       -0.0127726154
[TRACE:0]  H           1.0    -4.1059351672        2.6208280123       -0.0438769828
[TRACE:0]  H           1.0     6.1075364945       -0.5252265845        0.3089671055
[TRACE:0]  H           1.0     4.8168663786       -3.4626283179        0.1087347598
[TRACE:0]           INTERNUCLEAR DISTANCES (ANGS.)
[TRACE:0]           ------------------------------
[TRACE:0]                     C              C              C              N         
[TRACE:0]   1  C               0.0000000      1.4650373 *    2.4293715 *    2.7671998 *  
[TRACE:0]   2  C               1.4650373 *    0.0000000      1.3716299 *    2.3853090 *  
[TRACE:0]   3  C               2.4293715 *    1.3716299 *    0.0000000      1.3647282 *  
[TRACE:0]   4  N               2.7671998 *    2.3853090 *    1.3647282 *    0.0000000    
[TRACE:0]   5  C               2.3616684 *    2.7977262 *    2.4285103 *    1.4396187 *  
[TRACE:0]   6  N               1.3462286 *    2.4625907 *    2.8244187 *    2.4616677 *  
[TRACE:0]   7  O               3.5245987      4.0405291      3.5242186      2.2803670 *  
[TRACE:0]   8  N               1.3788003 *    2.4392768 *    3.6719913      4.1442601    
[TRACE:0]   9  H               2.2349198 *    1.0941969 *    2.1525794 *    3.3805993    
[TRACE:0]  10  H               3.4569107      2.1666011 *    1.1066467 *    2.1130820 *  
[TRACE:0]  11  H               3.7602904      3.2895627      2.0657207 *    0.9940077 *  
[TRACE:0]  12  H               2.0380711 *    2.5820785 *    3.9382449      4.6737003    
[TRACE:1]  INPUT CARD>N      1   1.3788003  2   118.0962168  3   176.8645647  0                       
[TRACE:1]  INPUT CARD>H      2   1.0941969  3   121.2004089  4   179.6832397  0                       
[TRACE:1]  INPUT CARD>H      3   1.1066467  4   117.1420349  5  -179.7448468  0                       
[TRACE:1]  INPUT CARD>H      4    .9940077  5   118.5566942  6  -179.8953981  0                       
[TRACE:1]  INPUT CARD>H      8    .9887008  1   117.8840921  2    15.7868234  0                       
[TRACE:1]  INPUT CARD>H      8    .9916901  1   119.8259677  2   173.2680833  0                       
[TRACE:1]  INPUT CARD> $end                                                                           
[TRACE:1]  INPUT CARD>                                                                                
[TRACE:1]  ..... DONE SETTING UP THE RUN .....
[TRACE:1] LOCMEM is    1   1
[TRACE:1]      400000 WORDS OF MEMORY AVAILABLE
[TRACE:1]      BASIS OPTIONS
[TRACE:1]      -------------
[TRACE:1]      GBASIS=TZV          IGAUSS=       0      POLAR=HONDO7  
[TRACE:1]      NDFUNC=       1     NFFUNC=       0     DIFFSP=       F
[TRACE:1]      NPFUNC=       1      DIFFS=       F
[TRACE:1]      RUN TITLE
[TRACE:1]      ---------
[TRACE:1]  cytosine...one of the bases found in nucleic acids...RHF/6-31G(d)//RHF/AM1      
[TRACE:1]  THE POINT GROUP OF THE MOLECULE IS C1      
[TRACE:1]  THE ORDER OF THE PRINCIPAL AXIS IS     0
[TRACE:1]  YOUR FULLY SUBSTITUTED Z-MATRIX IS
[TRACE:1]  C   
[TRACE:1]  C      1   1.4650373
[TRACE:1]  C      2   1.3716299  1  117.7959
[TRACE:1]  N      3   1.3647282  2  121.3156  1    0.3498  0
[TRACE:1]  C      4   1.4396187  3  119.9661  2    0.2091  0
[TRACE:1]  N      5   1.4011663  3   90.9801  2    0.2115  0
[TRACE:1]  O      5   1.2468098  4  115.9884  3  179.7178  0
[TRACE:1]  N      1   1.3788003  2  118.0962  3  176.8646  0
[TRACE:1]  H      2   1.0941969  3  121.2004  4  179.6832  0
[TRACE:1]  H      3   1.1066467  4  117.1420  5 -179.7448  0
[TRACE:1]  H      4   0.9940077  5  118.5567  6 -179.8954  0
[TRACE:1]  H      8   0.9887008  1  117.8841  2   15.7868  0
[TRACE:1]  H      8   0.9916901  1  119.8260  2  173.2681  0
[TRACE:1]  THE MOMENTS OF INERTIA ARE (AMU-ANGSTROM**2)
[TRACE:1]  IXX=   132.254   IYY=   260.759   IZZ=   392.883
[TRACE:1]  ATOM      ATOMIC                      COORDINATES (BOHR)
[TRACE:1]            CHARGE         X                   Y                   Z
[TRACE:1]  C           6.0     2.2669311020       -0.5218552546        0.0208873820
[TRACE:1]  C           6.0     2.0984851111        2.2415330640        0.0238416361
[TRACE:1]  C           6.0    -0.2635520984        3.3085380611       -0.0038847765
[TRACE:1]  N           7.0    -2.3920570783        1.8524273767       -0.0198536711
[TRACE:1]  C           6.0    -2.1831061295       -0.8599413366        0.0009643730
[TRACE:1]  N           7.0     0.2024344587       -2.0082848229        0.0391226293
[TRACE:1]  O           8.0    -4.2153816810       -2.0520661390       -0.0051871457
[TRACE:1]  N           7.0     4.6338080702       -1.6068482056       -0.0770887112
[TRACE:1]  H           1.0     3.8027918449        3.4123646305        0.0268311474
[TRACE:1]  H           1.0    -0.5267939208        5.3831438242       -0.0127726154
[TRACE:1]  H           1.0    -4.1059351672        2.6208280123       -0.0438769828
[TRACE:1]  H           1.0     6.1075364945       -0.5252265845        0.3089671055
[TRACE:1]  H           1.0     4.8168663786       -3.4626283179        0.1087347598
[TRACE:1]           INTERNUCLEAR DISTANCES (ANGS.)
[TRACE:1]           ------------------------------
[TRACE:1]                     C              C              C              N         
[TRACE:1]   1  C               0.0000000      1.4650373 *    2.4293715 *    2.7671998 *  
[TRACE:1]   2  C               1.4650373 *    0.0000000      1.3716299 *    2.3853090 *  
[TRACE:1]   3  C               2.4293715 *    1.3716299 *    0.0000000      1.3647282 *  
[TRACE:1]   4  N               2.7671998 *    2.3853090 *    1.3647282 *    0.0000000    
[TRACE:1]   5  C               2.3616684 *    2.7977262 *    2.4285103 *    1.4396187 *  
[TRACE:1]   6  N               1.3462286 *    2.4625907 *    2.8244187 *    2.4616677 *  
[TRACE:1]   7  O               3.5245987      4.0405291      3.5242186      2.2803670 *  
[TRACE:1]   8  N               1.3788003 *    2.4392768 *    3.6719913      4.1442601    
[TRACE:1]   9  H               2.2349198 *    1.0941969 *    2.1525794 *    3.3805993    
[TRACE:1]  10  H               3.4569107      2.1666011 *    1.1066467 *    2.1130820 *  
[TRACE:1]  11  H               3.7602904      3.2895627      2.0657207 *    0.9940077 *  
[TRACE:1]  12  H               2.0380711 *    2.5820785 *    3.9382449      4.6737003    
[TRACE:2]  INPUT CARD>N      1   1.3788003  2   118.0962168  3   176.8645647  0                       
[TRACE:2]  INPUT CARD>H      2   1.0941969  3   121.2004089  4   179.6832397  0                       
[TRACE:2]  INPUT CARD>H      3   1.1066467  4   117.1420349  5  -179.7448468  0                       
[TRACE:2]  INPUT CARD>H      4    .9940077  5   118.5566942  6  -179.8953981  0                       
[TRACE:2]  INPUT CARD>H      8    .9887008  1   117.8840921  2    15.7868234  0                       
[TRACE:2]  INPUT CARD>H      8    .9916901  1   119.8259677  2   173.2680833  0                       
[TRACE:2]  INPUT CARD> $end                                                                           
[TRACE:2]  INPUT CARD>                                                                                
[TRACE:2]  ..... DONE SETTING UP THE RUN .....
[TRACE:2] LOCMEM is    1   1
[TRACE:2]      400000 WORDS OF MEMORY AVAILABLE
[TRACE:2]      BASIS OPTIONS
[TRACE:2]      -------------
[TRACE:2]      GBASIS=TZV          IGAUSS=       0      POLAR=HONDO7  
[TRACE:2]      NDFUNC=       1     NFFUNC=       0     DIFFSP=       F
[TRACE:2]      NPFUNC=       1      DIFFS=       F
[TRACE:2]      RUN TITLE
[TRACE:2]      ---------
[TRACE:2]  cytosine...one of the bases found in nucleic acids...RHF/6-31G(d)//RHF/AM1      
[TRACE:2]  THE POINT GROUP OF THE MOLECULE IS C1      
[TRACE:2]  THE ORDER OF THE PRINCIPAL AXIS IS     0
[TRACE:2]  YOUR FULLY SUBSTITUTED Z-MATRIX IS
[TRACE:2]  C   
[TRACE:2]  C      1   1.4650373
[TRACE:2]  C      2   1.3716299  1  117.7959
[TRACE:2]  N      3   1.3647282  2  121.3156  1    0.3498  0
[TRACE:2]  C      4   1.4396187  3  119.9661  2    0.2091  0
[TRACE:2]  N      5   1.4011663  3   90.9801  2    0.2115  0
[TRACE:2]  O      5   1.2468098  4  115.9884  3  179.7178  0
[TRACE:2]  N      1   1.3788003  2  118.0962  3  176.8646  0
[TRACE:2]  H      2   1.0941969  3  121.2004  4  179.6832  0
[TRACE:2]  H      3   1.1066467  4  117.1420  5 -179.7448  0
[TRACE:2]  H      4   0.9940077  5  118.5567  6 -179.8954  0
[TRACE:2]  H      8   0.9887008  1  117.8841  2   15.7868  0
[TRACE:2]  H      8   0.9916901  1  119.8260  2  173.2681  0
[TRACE:2]  THE MOMENTS OF INERTIA ARE (AMU-ANGSTROM**2)
[TRACE:2]  IXX=   132.254   IYY=   260.759   IZZ=   392.883
[TRACE:2]  ATOM      ATOMIC                      COORDINATES (BOHR)
[TRACE:2]            CHARGE         X                   Y                   Z
[TRACE:2]  C           6.0     2.2669311020       -0.5218552546        0.0208873820
[TRACE:2]  C           6.0     2.0984851111        2.2415330640        0.0238416361
[TRACE:2]  C           6.0    -0.2635520984        3.3085380611       -0.0038847765
[TRACE:2]  N           7.0    -2.3920570783        1.8524273767       -0.0198536711
[TRACE:2]  C           6.0    -2.1831061295       -0.8599413366        0.0009643730
[TRACE:2]  N           7.0     0.2024344587       -2.0082848229        0.0391226293
[TRACE:2]  O           8.0    -4.2153816810       -2.0520661390       -0.0051871457
[TRACE:2]  N           7.0     4.6338080702       -1.6068482056       -0.0770887112
[TRACE:2]  H           1.0     3.8027918449        3.4123646305        0.0268311474
[TRACE:2]  H           1.0    -0.5267939208        5.3831438242       -0.0127726154
[TRACE:2]  H           1.0    -4.1059351672        2.6208280123       -0.0438769828
[TRACE:2]  H           1.0     6.1075364945       -0.5252265845        0.3089671055
[TRACE:2]  H           1.0     4.8168663786       -3.4626283179        0.1087347598
[TRACE:2]           INTERNUCLEAR DISTANCES (ANGS.)
[TRACE:2]           ------------------------------
[TRACE:2]                     C              C              C              N         
[TRACE:2]   1  C               0.0000000      1.4650373 *    2.4293715 *    2.7671998 *  
[TRACE:2]   2  C               1.4650373 *    0.0000000      1.3716299 *    2.3853090 *  
[TRACE:2]   3  C               2.4293715 *    1.3716299 *    0.0000000      1.3647282 *  
[TRACE:2]   4  N               2.7671998 *    2.3853090 *    1.3647282 *    0.0000000    
[TRACE:2]   5  C               2.3616684 *    2.7977262 *    2.4285103 *    1.4396187 *  
[TRACE:2]   6  N               1.3462286 *    2.4625907 *    2.8244187 *    2.4616677 *  
[TRACE:2]   7  O               3.5245987      4.0405291      3.5242186      2.2803670 *  
[TRACE:2]   8  N               1.3788003 *    2.4392768 *    3.6719913      4.1442601    
[TRACE:2]   9  H               2.2349198 *    1.0941969 *    2.1525794 *    3.3805993    
[TRACE:2]  10  H               3.4569107      2.1666011 *    1.1066467 *    2.1130820 *  
[TRACE:2]  11  H               3.7602904      3.2895627      2.0657207 *    0.9940077 *  
[TRACE:2]  12  H               2.0380711 *    2.5820785 *    3.9382449      4.6737003    
[TRACE:3]  INPUT CARD>N      1   1.3788003  2   118.0962168  3   176.8645647  0                       
[TRACE:3]  INPUT CARD>H      2   1.0941969  3   121.2004089  4   179.6832397  0                       
[TRACE:3]  INPUT CARD>H      3   1.1066467  4   117.1420349  5  -179.7448468  0                       
[TRACE:3]  INPUT CARD>H      4    .9940077  5   118.5566942  6  -179.8953981  0                       
[TRACE:3]  INPUT CARD>H      8    .9887008  1   117.8840921  2    15.7868234  0                       
[TRACE:3]  INPUT CARD>H      8    .9916901  1   119.8259677  2   173.2680833  0                       
[TRACE:3]  INPUT CARD> $end                                                                           
[TRACE:3]  INPUT CARD>                                                                                
[TRACE:3]  ..... DONE SETTING UP THE RUN .....
[TRACE:3] LOCMEM is    1   1
[TRACE:3]      400000 WORDS OF MEMORY AVAILABLE
[TRACE:3]      BASIS OPTIONS
[TRACE:3]      -------------
[TRACE:3]      GBASIS=TZV          IGAUSS=       0      POLAR=HONDO7  
[TRACE:3]      NDFUNC=       1     NFFUNC=       0     DIFFSP=       F
[TRACE:3]      NPFUNC=       1      DIFFS=       F
[TRACE:3]      RUN TITLE
[TRACE:3]      ---------
[TRACE:3]  cytosine...one of the bases found in nucleic acids...RHF/6-31G(d)//RHF/AM1      
[TRACE:3]  THE POINT GROUP OF THE MOLECULE IS C1      
[TRACE:3]  THE ORDER OF THE PRINCIPAL AXIS IS     0
[TRACE:3]  YOUR FULLY SUBSTITUTED Z-MATRIX IS
[TRACE:3]  C   
[TRACE:3]  C      1   1.4650373
[TRACE:3]  C      2   1.3716299  1  117.7959
[TRACE:3]  N      3   1.3647282  2  121.3156  1    0.3498  0
[TRACE:3]  C      4   1.4396187  3  119.9661  2    0.2091  0
[TRACE:3]  N      5   1.4011663  3   90.9801  2    0.2115  0
[TRACE:3]  O      5   1.2468098  4  115.9884  3  179.7178  0
[TRACE:3]  N      1   1.3788003  2  118.0962  3  176.8646  0
[TRACE:3]  H      2   1.0941969  3  121.2004  4  179.6832  0
[TRACE:3]  H      3   1.1066467  4  117.1420  5 -179.7448  0
[TRACE:3]  H      4   0.9940077  5  118.5567  6 -179.8954  0
[TRACE:3]  H      8   0.9887008  1  117.8841  2   15.7868  0
[TRACE:3]  H      8   0.9916901  1  119.8260  2  173.2681  0
[TRACE:3]  THE MOMENTS OF INERTIA ARE (AMU-ANGSTROM**2)
[TRACE:3]  IXX=   132.254   IYY=   260.759   IZZ=   392.883
[TRACE:3]  ATOM      ATOMIC                      COORDINATES (BOHR)
[TRACE:3]            CHARGE         X                   Y                   Z
[TRACE:3]  C           6.0     2.2669311020       -0.5218552546        0.0208873820
[TRACE:3]  C           6.0     2.0984851111        2.2415330640        0.0238416361
[TRACE:3]  C           6.0    -0.2635520984        3.3085380611       -0.0038847765
[TRACE:3]  N           7.0    -2.3920570783        1.8524273767       -0.0198536711
[TRACE:3]  C           6.0    -2.1831061295       -0.8599413366        0.0009643730
[TRACE:3]  N           7.0     0.2024344587       -2.0082848229        0.0391226293
[TRACE:3]  O           8.0    -4.2153816810       -2.0520661390       -0.0051871457
[TRACE:3]  N           7.0     4.6338080702       -1.6068482056       -0.0770887112
[TRACE:3]  H           1.0     3.8027918449        3.4123646305        0.0268311474
[TRACE:3]  H           1.0    -0.5267939208        5.3831438242       -0.0127726154
[TRACE:3]  H           1.0    -4.1059351672        2.6208280123       -0.0438769828
[TRACE:3]  H           1.0     6.1075364945       -0.5252265845        0.3089671055
[TRACE:3]  H           1.0     4.8168663786       -3.4626283179        0.1087347598
[TRACE:3]           INTERNUCLEAR DISTANCES (ANGS.)
[TRACE:3]           ------------------------------
[TRACE:3]                     C              C              C              N         
[TRACE:3]   1  C               0.0000000      1.4650373 *    2.4293715 *    2.7671998 *  
[TRACE:3]   2  C               1.4650373 *    0.0000000      1.3716299 *    2.3853090 *  
[TRACE:3]   3  C               2.4293715 *    1.3716299 *    0.0000000      1.3647282 *  
[TRACE:3]   4  N               2.7671998 *    2.3853090 *    1.3647282 *    0.0000000    
[TRACE:3]   5  C               2.3616684 *    2.7977262 *    2.4285103 *    1.4396187 *  
[TRACE:3]   6  N               1.3462286 *    2.4625907 *    2.8244187 *    2.4616677 *  
[TRACE:3]   7  O               3.5245987      4.0405291      3.5242186      2.2803670 *  
[TRACE:3]   8  N               1.3788003 *    2.4392768 *    3.6719913      4.1442601    
[TRACE:3]   9  H               2.2349198 *    1.0941969 *    2.1525794 *    3.3805993    
[TRACE:3]  10  H               3.4569107      2.1666011 *    1.1066467 *    2.1130820 *  
[TRACE:3]  11  H               3.7602904      3.2895627      2.0657207 *    0.9940077 *  
[TRACE:3]  12  H               2.0380711 *    2.5820785 *    3.9382449      4.6737003    
[TRACE:0]  13  H               2.0602627 *    3.3440594      4.4799794      4.7400498    
[TRACE:0]                     C              N              O              N         
[TRACE:0]   1  C               2.3616684 *    1.3462286 *    3.5245987      1.3788003 *  
[TRACE:0]   2  C               2.7977262 *    2.4625907 *    4.0405291      2.4392768 *  
[TRACE:0]   3  C               2.4285103 *    2.8244187 *    3.5242186      3.6719913    
[TRACE:0]   4  N               1.4396187 *    2.4616677 *    2.2803670 *    4.1442601    
[TRACE:0]   5  C               0.0000000      1.4011663 *    1.2468098 *    3.6291793    
[TRACE:0]   6  N               1.4011663 *    0.0000000      2.3380402 *    2.3553874 *  
[TRACE:0]   7  O               1.2468098 *    2.3380402 *    0.0000000      4.6888672    
[TRACE:0]   8  N               3.6291793      2.3553874 *    4.6888672      0.0000000    
[TRACE:0]   9  H               3.8916748      3.4435644      5.1347139      2.6927732 *  
[TRACE:0]  10  H               3.4179964      3.9304615      4.3921101      4.5979364    
[TRACE:0]  11  H               2.1044387 *    3.3467114      2.4735522 *    5.1375852    
[TRACE:0]  12  H               4.3938175      3.2250524      5.5245844      0.9887008 *  
[TRACE:0]  13  H               3.9523982      2.5605259 *    4.8379701      0.9916901 *  
[TRACE:0]                     H              H              H              H         
[TRACE:0]   1  C               2.2349198 *    3.4569107      3.7602904      2.0380711 *  
[TRACE:0]   2  C               1.0941969 *    2.1666011 *    3.2895627      2.5820785 *  
[TRACE:0]   3  C               2.1525794 *    1.1066467 *    2.0657207 *    3.9382449    
[TRACE:0]   4  N               3.3805993      2.1130820 *    0.9940077 *    4.6737003    
[TRACE:0]   5  C               3.8916748      3.4179964      2.1044387 *    4.3938175    
[TRACE:0]   6  N               3.4435644      3.9304615      3.3467114      3.2250524    
[TRACE:0]   7  O               5.1347139      4.3921101      2.4735522 *    5.5245844    
[TRACE:0]   8  N               2.6927732 *    4.5979364      5.1375852      0.9887008 *  
[TRACE:0]   9  H               0.0000000      2.5173965 *    4.2061933      2.4189868 *  
[TRACE:0]  10  H               2.5173965 *    0.0000000      2.3925372 *    4.7042249    
[TRACE:0]  11  H               4.2061933      2.3925372 *    0.0000000      5.6584159    
[TRACE:0]  12  H               2.4189868 *    4.7042249      5.6584159      0.0000000    
[TRACE:0]  13  H               3.6777089      5.4691731      5.7153132      1.7011424 *  
[TRACE:0]                     H         
[TRACE:0]   1  C               2.0602627 *  
[TRACE:0]   2  C               3.3440594    
[TRACE:0]   3  C               4.4799794    
[TRACE:0]   4  N               4.7400498    
[TRACE:0]   5  C               3.9523982    
[TRACE:0]   6  N               2.5605259 *  
[TRACE:0]   7  O               4.8379701    
[TRACE:0]   8  N               0.9916901 *  
[TRACE:0]   9  H               3.6777089    
[TRACE:0]  10  H               5.4691731    
[TRACE:0]  11  H               5.7153132    
[TRACE:0]  12  H               1.7011424 *  
[TRACE:0]  13  H               0.0000000    
[TRACE:0]   * ... LESS THAN  3.000
[TRACE:0]      ATOMIC BASIS SET
[TRACE:0]      ----------------
[TRACE:0]  THE CONTRACTED PRIMITIVE FUNCTIONS HAVE BEEN UNNORMALIZED
[TRACE:0]  THE CONTRACTED BASIS FUNCTIONS ARE NOW NORMALIZED TO UNITY
[TRACE:0]  SHELL TYPE PRIMITIVE    EXPONENT          CONTRACTION COEFFICIENTS
[TRACE:0]  C         
[TRACE:0]    1   S    1          9471.0000000      0.000776000185
[TRACE:0]    1   S    2          1398.0000000      0.006218001481
[TRACE:0]    1   S    3           307.5000000      0.033575007997
[TRACE:0]    1   S    4            84.5400000      0.134278031981
[TRACE:0]    1   S    5            26.9100000      0.393668093760
[TRACE:0]    1   S    6             9.4090000      0.544169129605
[TRACE:0]    2   S    7             9.4090000      0.248075019298
[TRACE:0]    2   S    8             3.5000000      0.782844060899
[TRACE:0]    3   S    9             1.0680000      1.000000000000
[TRACE:0]    4   S   10             0.4002000      1.000000000000
[TRACE:0]    5   S   11             0.1351000      1.000000000000
[TRACE:0]    6   P   12            25.3700000      0.016294995820
[TRACE:0]    6   P   13             5.7760000      0.102097973810
[TRACE:0]    6   P   14             1.7870000      0.340227912727
[TRACE:0]    6   P   15             0.6577000      0.668268828580
[TRACE:0]    7   P   16             0.2480000      1.000000000000
[TRACE:0]    8   P   17             0.0910600      1.000000000000
[TRACE:0]    9   D   18             0.7200000      1.000000000000
[TRACE:0]  C         
[TRACE:1]  13  H               2.0602627 *    3.3440594      4.4799794      4.7400498    
[TRACE:1]                     C              N              O              N         
[TRACE:1]   1  C               2.3616684 *    1.3462286 *    3.5245987      1.3788003 *  
[TRACE:1]   2  C               2.7977262 *    2.4625907 *    4.0405291      2.4392768 *  
[TRACE:1]   3  C               2.4285103 *    2.8244187 *    3.5242186      3.6719913    
[TRACE:1]   4  N               1.4396187 *    2.4616677 *    2.2803670 *    4.1442601    
[TRACE:1]   5  C               0.0000000      1.4011663 *    1.2468098 *    3.6291793    
[TRACE:1]   6  N               1.4011663 *    0.0000000      2.3380402 *    2.3553874 *  
[TRACE:1]   7  O               1.2468098 *    2.3380402 *    0.0000000      4.6888672    
[TRACE:1]   8  N               3.6291793      2.3553874 *    4.6888672      0.0000000    
[TRACE:1]   9  H               3.8916748      3.4435644      5.1347139      2.6927732 *  
[TRACE:1]  10  H               3.4179964      3.9304615      4.3921101      4.5979364    
[TRACE:1]  11  H               2.1044387 *    3.3467114      2.4735522 *    5.1375852    
[TRACE:1]  12  H               4.3938175      3.2250524      5.5245844      0.9887008 *  
[TRACE:1]  13  H               3.9523982      2.5605259 *    4.8379701      0.9916901 *  
[TRACE:1]                     H              H              H              H         
[TRACE:1]   1  C               2.2349198 *    3.4569107      3.7602904      2.0380711 *  
[TRACE:1]   2  C               1.0941969 *    2.1666011 *    3.2895627      2.5820785 *  
[TRACE:1]   3  C               2.1525794 *    1.1066467 *    2.0657207 *    3.9382449    
[TRACE:1]   4  N               3.3805993      2.1130820 *    0.9940077 *    4.6737003    
[TRACE:1]   5  C               3.8916748      3.4179964      2.1044387 *    4.3938175    
[TRACE:1]   6  N               3.4435644      3.9304615      3.3467114      3.2250524    
[TRACE:1]   7  O               5.1347139      4.3921101      2.4735522 *    5.5245844    
[TRACE:1]   8  N               2.6927732 *    4.5979364      5.1375852      0.9887008 *  
[TRACE:1]   9  H               0.0000000      2.5173965 *    4.2061933      2.4189868 *  
[TRACE:1]  10  H               2.5173965 *    0.0000000      2.3925372 *    4.7042249    
[TRACE:1]  11  H               4.2061933      2.3925372 *    0.0000000      5.6584159    
[TRACE:1]  12  H               2.4189868 *    4.7042249      5.6584159      0.0000000    
[TRACE:1]  13  H               3.6777089      5.4691731      5.7153132      1.7011424 *  
[TRACE:1]                     H         
[TRACE:1]   1  C               2.0602627 *  
[TRACE:1]   2  C               3.3440594    
[TRACE:1]   3  C               4.4799794    
[TRACE:1]   4  N               4.7400498    
[TRACE:1]   5  C               3.9523982    
[TRACE:1]   6  N               2.5605259 *  
[TRACE:1]   7  O               4.8379701    
[TRACE:1]   8  N               0.9916901 *  
[TRACE:1]   9  H               3.6777089    
[TRACE:1]  10  H               5.4691731    
[TRACE:1]  11  H               5.7153132    
[TRACE:1]  12  H               1.7011424 *  
[TRACE:1]  13  H               0.0000000    
[TRACE:1]   * ... LESS THAN  3.000
[TRACE:1]      ATOMIC BASIS SET
[TRACE:1]      ----------------
[TRACE:1]  THE CONTRACTED PRIMITIVE FUNCTIONS HAVE BEEN UNNORMALIZED
[TRACE:1]  THE CONTRACTED BASIS FUNCTIONS ARE NOW NORMALIZED TO UNITY
[TRACE:1]  SHELL TYPE PRIMITIVE    EXPONENT          CONTRACTION COEFFICIENTS
[TRACE:1]  C         
[TRACE:1]    1   S    1          9471.0000000      0.000776000185
[TRACE:1]    1   S    2          1398.0000000      0.006218001481
[TRACE:1]    1   S    3           307.5000000      0.033575007997
[TRACE:1]    1   S    4            84.5400000      0.134278031981
[TRACE:1]    1   S    5            26.9100000      0.393668093760
[TRACE:1]    1   S    6             9.4090000      0.544169129605
[TRACE:1]    2   S    7             9.4090000      0.248075019298
[TRACE:1]    2   S    8             3.5000000      0.782844060899
[TRACE:1]    3   S    9             1.0680000      1.000000000000
[TRACE:1]    4   S   10             0.4002000      1.000000000000
[TRACE:1]    5   S   11             0.1351000      1.000000000000
[TRACE:1]    6   P   12            25.3700000      0.016294995820
[TRACE:1]    6   P   13             5.7760000      0.102097973810
[TRACE:1]    6   P   14             1.7870000      0.340227912727
[TRACE:1]    6   P   15             0.6577000      0.668268828580
[TRACE:1]    7   P   16             0.2480000      1.000000000000
[TRACE:1]    8   P   17             0.0910600      1.000000000000
[TRACE:1]    9   D   18             0.7200000      1.000000000000
[TRACE:1]  C         
[TRACE:2]  13  H               2.0602627 *    3.3440594      4.4799794      4.7400498    
[TRACE:2]                     C              N              O              N         
[TRACE:2]   1  C               2.3616684 *    1.3462286 *    3.5245987      1.3788003 *  
[TRACE:2]   2  C               2.7977262 *    2.4625907 *    4.0405291      2.4392768 *  
[TRACE:2]   3  C               2.4285103 *    2.8244187 *    3.5242186      3.6719913    
[TRACE:2]   4  N               1.4396187 *    2.4616677 *    2.2803670 *    4.1442601    
[TRACE:2]   5  C               0.0000000      1.4011663 *    1.2468098 *    3.6291793    
[TRACE:2]   6  N               1.4011663 *    0.0000000      2.3380402 *    2.3553874 *  
[TRACE:2]   7  O               1.2468098 *    2.3380402 *    0.0000000      4.6888672    
[TRACE:2]   8  N               3.6291793      2.3553874 *    4.6888672      0.0000000    
[TRACE:2]   9  H               3.8916748      3.4435644      5.1347139      2.6927732 *  
[TRACE:2]  10  H               3.4179964      3.9304615      4.3921101      4.5979364    
[TRACE:2]  11  H               2.1044387 *    3.3467114      2.4735522 *    5.1375852    
[TRACE:2]  12  H               4.3938175      3.2250524      5.5245844      0.9887008 *  
[TRACE:2]  13  H               3.9523982      2.5605259 *    4.8379701      0.9916901 *  
[TRACE:2]                     H              H              H              H         
[TRACE:2]   1  C               2.2349198 *    3.4569107      3.7602904      2.0380711 *  
[TRACE:2]   2  C               1.0941969 *    2.1666011 *    3.2895627      2.5820785 *  
[TRACE:2]   3  C               2.1525794 *    1.1066467 *    2.0657207 *    3.9382449    
[TRACE:2]   4  N               3.3805993      2.1130820 *    0.9940077 *    4.6737003    
[TRACE:2]   5  C               3.8916748      3.4179964      2.1044387 *    4.3938175    
[TRACE:2]   6  N               3.4435644      3.9304615      3.3467114      3.2250524    
[TRACE:2]   7  O               5.1347139      4.3921101      2.4735522 *    5.5245844    
[TRACE:2]   8  N               2.6927732 *    4.5979364      5.1375852      0.9887008 *  
[TRACE:2]   9  H               0.0000000      2.5173965 *    4.2061933      2.4189868 *  
[TRACE:2]  10  H               2.5173965 *    0.0000000      2.3925372 *    4.7042249    
[TRACE:2]  11  H               4.2061933      2.3925372 *    0.0000000      5.6584159    
[TRACE:2]  12  H               2.4189868 *    4.7042249      5.6584159      0.0000000    
[TRACE:2]  13  H               3.6777089      5.4691731      5.7153132      1.7011424 *  
[TRACE:2]                     H         
[TRACE:2]   1  C               2.0602627 *  
[TRACE:2]   2  C               3.3440594    
[TRACE:2]   3  C               4.4799794    
[TRACE:2]   4  N               4.7400498    
[TRACE:2]   5  C               3.9523982    
[TRACE:2]   6  N               2.5605259 *  
[TRACE:2]   7  O               4.8379701    
[TRACE:2]   8  N               0.9916901 *  
[TRACE:2]   9  H               3.6777089    
[TRACE:2]  10  H               5.4691731    
[TRACE:2]  11  H               5.7153132    
[TRACE:2]  12  H               1.7011424 *  
[TRACE:2]  13  H               0.0000000    
[TRACE:2]   * ... LESS THAN  3.000
[TRACE:2]      ATOMIC BASIS SET
[TRACE:2]      ----------------
[TRACE:2]  THE CONTRACTED PRIMITIVE FUNCTIONS HAVE BEEN UNNORMALIZED
[TRACE:2]  THE CONTRACTED BASIS FUNCTIONS ARE NOW NORMALIZED TO UNITY
[TRACE:2]  SHELL TYPE PRIMITIVE    EXPONENT          CONTRACTION COEFFICIENTS
[TRACE:2]  C         
[TRACE:2]    1   S    1          9471.0000000      0.000776000185
[TRACE:2]    1   S    2          1398.0000000      0.006218001481
[TRACE:2]    1   S    3           307.5000000      0.033575007997
[TRACE:2]    1   S    4            84.5400000      0.134278031981
[TRACE:2]    1   S    5            26.9100000      0.393668093760
[TRACE:2]    1   S    6             9.4090000      0.544169129605
[TRACE:2]    2   S    7             9.4090000      0.248075019298
[TRACE:2]    2   S    8             3.5000000      0.782844060899
[TRACE:2]    3   S    9             1.0680000      1.000000000000
[TRACE:2]    4   S   10             0.4002000      1.000000000000
[TRACE:2]    5   S   11             0.1351000      1.000000000000
[TRACE:2]    6   P   12            25.3700000      0.016294995820
[TRACE:2]    6   P   13             5.7760000      0.102097973810
[TRACE:2]    6   P   14             1.7870000      0.340227912727
[TRACE:2]    6   P   15             0.6577000      0.668268828580
[TRACE:2]    7   P   16             0.2480000      1.000000000000
[TRACE:2]    8   P   17             0.0910600      1.000000000000
[TRACE:2]    9   D   18             0.7200000      1.000000000000
[TRACE:2]  C         
[TRACE:3]  13  H               2.0602627 *    3.3440594      4.4799794      4.7400498    
[TRACE:3]                     C              N              O              N         
[TRACE:3]   1  C               2.3616684 *    1.3462286 *    3.5245987      1.3788003 *  
[TRACE:3]   2  C               2.7977262 *    2.4625907 *    4.0405291      2.4392768 *  
[TRACE:3]   3  C               2.4285103 *    2.8244187 *    3.5242186      3.6719913    
[TRACE:3]   4  N               1.4396187 *    2.4616677 *    2.2803670 *    4.1442601    
[TRACE:3]   5  C               0.0000000      1.4011663 *    1.2468098 *    3.6291793    
[TRACE:3]   6  N               1.4011663 *    0.0000000      2.3380402 *    2.3553874 *  
[TRACE:3]   7  O               1.2468098 *    2.3380402 *    0.0000000      4.6888672    
[TRACE:3]   8  N               3.6291793      2.3553874 *    4.6888672      0.0000000    
[TRACE:3]   9  H               3.8916748      3.4435644      5.1347139      2.6927732 *  
[TRACE:3]  10  H               3.4179964      3.9304615      4.3921101      4.5979364    
[TRACE:3]  11  H               2.1044387 *    3.3467114      2.4735522 *    5.1375852    
[TRACE:3]  12  H               4.3938175      3.2250524      5.5245844      0.9887008 *  
[TRACE:3]  13  H               3.9523982      2.5605259 *    4.8379701      0.9916901 *  
[TRACE:3]                     H              H              H              H         
[TRACE:3]   1  C               2.2349198 *    3.4569107      3.7602904      2.0380711 *  
[TRACE:3]   2  C               1.0941969 *    2.1666011 *    3.2895627      2.5820785 *  
[TRACE:3]   3  C               2.1525794 *    1.1066467 *    2.0657207 *    3.9382449    
[TRACE:3]   4  N               3.3805993      2.1130820 *    0.9940077 *    4.6737003    
[TRACE:3]   5  C               3.8916748      3.4179964      2.1044387 *    4.3938175    
[TRACE:3]   6  N               3.4435644      3.9304615      3.3467114      3.2250524    
[TRACE:3]   7  O               5.1347139      4.3921101      2.4735522 *    5.5245844    
[TRACE:3]   8  N               2.6927732 *    4.5979364      5.1375852      0.9887008 *  
[TRACE:3]   9  H               0.0000000      2.5173965 *    4.2061933      2.4189868 *  
[TRACE:3]  10  H               2.5173965 *    0.0000000      2.3925372 *    4.7042249    
[TRACE:3]  11  H               4.2061933      2.3925372 *    0.0000000      5.6584159    
[TRACE:3]  12  H               2.4189868 *    4.7042249      5.6584159      0.0000000    
[TRACE:3]  13  H               3.6777089      5.4691731      5.7153132      1.7011424 *  
[TRACE:3]                     H         
[TRACE:3]   1  C               2.0602627 *  
[TRACE:3]   2  C               3.3440594    
[TRACE:3]   3  C               4.4799794    
[TRACE:3]   4  N               4.7400498    
[TRACE:3]   5  C               3.9523982    
[TRACE:3]   6  N               2.5605259 *  
[TRACE:3]   7  O               4.8379701    
[TRACE:3]   8  N               0.9916901 *  
[TRACE:3]   9  H               3.6777089    
[TRACE:3]  10  H               5.4691731    
[TRACE:3]  11  H               5.7153132    
[TRACE:3]  12  H               1.7011424 *  
[TRACE:3]  13  H               0.0000000    
[TRACE:3]   * ... LESS THAN  3.000
[TRACE:3]      ATOMIC BASIS SET
[TRACE:3]      ----------------
[TRACE:3]  THE CONTRACTED PRIMITIVE FUNCTIONS HAVE BEEN UNNORMALIZED
[TRACE:3]  THE CONTRACTED BASIS FUNCTIONS ARE NOW NORMALIZED TO UNITY
[TRACE:3]  SHELL TYPE PRIMITIVE    EXPONENT          CONTRACTION COEFFICIENTS
[TRACE:3]  C         
[TRACE:3]    1   S    1          9471.0000000      0.000776000185
[TRACE:3]    1   S    2          1398.0000000      0.006218001481
[TRACE:3]    1   S    3           307.5000000      0.033575007997
[TRACE:3]    1   S    4            84.5400000      0.134278031981
[TRACE:3]    1   S    5            26.9100000      0.393668093760
[TRACE:3]    1   S    6             9.4090000      0.544169129605
[TRACE:3]    2   S    7             9.4090000      0.248075019298
[TRACE:3]    2   S    8             3.5000000      0.782844060899
[TRACE:3]    3   S    9             1.0680000      1.000000000000
[TRACE:3]    4   S   10             0.4002000      1.000000000000
[TRACE:3]    5   S   11             0.1351000      1.000000000000
[TRACE:3]    6   P   12            25.3700000      0.016294995820
[TRACE:3]    6   P   13             5.7760000      0.102097973810
[TRACE:3]    6   P   14             1.7870000      0.340227912727
[TRACE:3]    6   P   15             0.6577000      0.668268828580
[TRACE:3]    7   P   16             0.2480000      1.000000000000
[TRACE:3]    8   P   17             0.0910600      1.000000000000
[TRACE:3]    9   D   18             0.7200000      1.000000000000
[TRACE:3]  C         
[TRACE:0] 
[TRACE:0]   10   S   19          9471.0000000      0.000776000185
[TRACE:0]   10   S   20          1398.0000000      0.006218001481
[TRACE:0]   10   S   21           307.5000000      0.033575007997
[TRACE:0]   10   S   22            84.5400000      0.134278031981
[TRACE:0]   10   S   23            26.9100000      0.393668093760
[TRACE:0]   10   S   24             9.4090000      0.544169129605
[TRACE:0]   11   S   25             9.4090000      0.248075019298
[TRACE:0]   11   S   26             3.5000000      0.782844060899
[TRACE:0]   12   S   27             1.0680000      1.000000000000
[TRACE:0]   13   S   28             0.4002000      1.000000000000
[TRACE:0]   14   S   29             0.1351000      1.000000000000
[TRACE:0]   15   P   30            25.3700000      0.016294995820
[TRACE:0]   15   P   31             5.7760000      0.102097973810
[TRACE:0]   15   P   32             1.7870000      0.340227912727
[TRACE:0]   15   P   33             0.6577000      0.668268828580
[TRACE:0]   16   P   34             0.2480000      1.000000000000
[TRACE:0]   17   P   35             0.0910600      1.000000000000
[TRACE:0]   18   D   36             0.7200000      1.000000000000
[TRACE:0]  C         
[TRACE:0]   19   S   37          9471.0000000      0.000776000185
[TRACE:0]   19   S   38          1398.0000000      0.006218001481
[TRACE:0]   19   S   39           307.5000000      0.033575007997
[TRACE:0]   19   S   40            84.5400000      0.134278031981
[TRACE:0]   19   S   41            26.9100000      0.393668093760
[TRACE:0]   19   S   42             9.4090000      0.544169129605
[TRACE:0]   20   S   43             9.4090000      0.248075019298
[TRACE:0]   20   S   44             3.5000000      0.782844060899
[TRACE:0]   21   S   45             1.0680000      1.000000000000
[TRACE:0]   22   S   46             0.4002000      1.000000000000
[TRACE:0]   23   S   47             0.1351000      1.000000000000
[TRACE:0]   24   P   48            25.3700000      0.016294995820
[TRACE:0]   24   P   49             5.7760000      0.102097973810
[TRACE:0]   24   P   50             1.7870000      0.340227912727
[TRACE:0]   24   P   51             0.6577000      0.668268828580
[TRACE:0]   25   P   52             0.2480000      1.000000000000
[TRACE:0]   26   P   53             0.0910600      1.000000000000
[TRACE:0]   27   D   54             0.7200000      1.000000000000
[TRACE:0]  N         
[TRACE:0]   28   S   55         13520.0000000      0.000760000458
[TRACE:0]   28   S   56          1999.0000000      0.006076003659
[TRACE:0]   28   S   57           440.0000000      0.032847019782
[TRACE:0]   28   S   58           120.9000000      0.132396079735
[TRACE:0]   28   S   59            38.4700000      0.393261236839
[TRACE:0]   28   S   60            13.4600000      0.546339329029
[TRACE:0]   29   S   61            13.4600000      0.252036044515
[TRACE:0]   29   S   62             4.9930000      0.779385137657
[TRACE:0]   30   S   63             1.5690000      1.000000000000
[TRACE:0]   31   S   64             0.5800000      1.000000000000
[TRACE:0]   32   S   65             0.1923000      1.000000000000
[TRACE:0]   33   P   66            35.9100000      0.016915996090
[TRACE:0]   33   P   67             8.4800000      0.102199976379
[TRACE:0]   33   P   68             2.7060000      0.338133921850
[TRACE:0]   33   P   69             0.9921000      0.669280845314
[TRACE:0]   34   P   70             0.3727000      1.000000000000
[TRACE:0]   35   P   71             0.1346000      1.000000000000
[TRACE:0]   36   D   72             0.9800000      1.000000000000
[TRACE:0]  C         
[TRACE:0]   37   S   73          9471.0000000      0.000776000185
[TRACE:0]   37   S   74          1398.0000000      0.006218001481
[TRACE:0]   37   S   75           307.5000000      0.033575007997
[TRACE:0]   37   S   76            84.5400000      0.134278031981
[TRACE:0]   37   S   77            26.9100000      0.393668093760
[TRACE:0]   37   S   78             9.4090000      0.544169129605
[TRACE:0]   38   S   79             9.4090000      0.248075019298
[TRACE:0]   38   S   80             3.5000000      0.782844060899
[TRACE:0]   39   S   81             1.0680000      1.000000000000
[TRACE:0]   40   S   82             0.4002000      1.000000000000
[TRACE:0]   41   S   83             0.1351000      1.000000000000
[TRACE:0]   42   P   84            25.3700000      0.016294995820
[TRACE:0]   42   P   85             5.7760000      0.102097973810
[TRACE:0]   42   P   86             1.7870000      0.340227912727
[TRACE:0]   42   P   87             0.6577000      0.668268828580
[TRACE:0]   43   P   88             0.2480000      1.000000000000
[TRACE:0]   44   P   89             0.0910600      1.000000000000
[TRACE:0]   45   D   90             0.7200000      1.000000000000
[TRACE:1] 
[TRACE:1]   10   S   19          9471.0000000      0.000776000185
[TRACE:1]   10   S   20          1398.0000000      0.006218001481
[TRACE:1]   10   S   21           307.5000000      0.033575007997
[TRACE:1]   10   S   22            84.5400000      0.134278031981
[TRACE:1]   10   S   23            26.9100000      0.393668093760
[TRACE:1]   10   S   24             9.4090000      0.544169129605
[TRACE:1]   11   S   25             9.4090000      0.248075019298
[TRACE:1]   11   S   26             3.5000000      0.782844060899
[TRACE:1]   12   S   27             1.0680000      1.000000000000
[TRACE:1]   13   S   28             0.4002000      1.000000000000
[TRACE:1]   14   S   29             0.1351000      1.000000000000
[TRACE:1]   15   P   30            25.3700000      0.016294995820
[TRACE:1]   15   P   31             5.7760000      0.102097973810
[TRACE:1]   15   P   32             1.7870000      0.340227912727
[TRACE:1]   15   P   33             0.6577000      0.668268828580
[TRACE:1]   16   P   34             0.2480000      1.000000000000
[TRACE:1]   17   P   35             0.0910600      1.000000000000
[TRACE:1]   18   D   36             0.7200000      1.000000000000
[TRACE:1]  C         
[TRACE:1]   19   S   37          9471.0000000      0.000776000185
[TRACE:1]   19   S   38          1398.0000000      0.006218001481
[TRACE:1]   19   S   39           307.5000000      0.033575007997
[TRACE:1]   19   S   40            84.5400000      0.134278031981
[TRACE:1]   19   S   41            26.9100000      0.393668093760
[TRACE:1]   19   S   42             9.4090000      0.544169129605
[TRACE:1]   20   S   43             9.4090000      0.248075019298
[TRACE:1]   20   S   44             3.5000000      0.782844060899
[TRACE:1]   21   S   45             1.0680000      1.000000000000
[TRACE:1]   22   S   46             0.4002000      1.000000000000
[TRACE:1]   23   S   47             0.1351000      1.000000000000
[TRACE:1]   24   P   48            25.3700000      0.016294995820
[TRACE:1]   24   P   49             5.7760000      0.102097973810
[TRACE:1]   24   P   50             1.7870000      0.340227912727
[TRACE:1]   24   P   51             0.6577000      0.668268828580
[TRACE:1]   25   P   52             0.2480000      1.000000000000
[TRACE:1]   26   P   53             0.0910600      1.000000000000
[TRACE:1]   27   D   54             0.7200000      1.000000000000
[TRACE:1]  N         
[TRACE:1]   28   S   55         13520.0000000      0.000760000458
[TRACE:1]   28   S   56          1999.0000000      0.006076003659
[TRACE:1]   28   S   57           440.0000000      0.032847019782
[TRACE:1]   28   S   58           120.9000000      0.132396079735
[TRACE:1]   28   S   59            38.4700000      0.393261236839
[TRACE:1]   28   S   60            13.4600000      0.546339329029
[TRACE:1]   29   S   61            13.4600000      0.252036044515
[TRACE:1]   29   S   62             4.9930000      0.779385137657
[TRACE:1]   30   S   63             1.5690000      1.000000000000
[TRACE:1]   31   S   64             0.5800000      1.000000000000
[TRACE:1]   32   S   65             0.1923000      1.000000000000
[TRACE:1]   33   P   66            35.9100000      0.016915996090
[TRACE:1]   33   P   67             8.4800000      0.102199976379
[TRACE:1]   33   P   68             2.7060000      0.338133921850
[TRACE:1]   33   P   69             0.9921000      0.669280845314
[TRACE:1]   34   P   70             0.3727000      1.000000000000
[TRACE:1]   35   P   71             0.1346000      1.000000000000
[TRACE:1]   36   D   72             0.9800000      1.000000000000
[TRACE:1]  C         
[TRACE:1]   37   S   73          9471.0000000      0.000776000185
[TRACE:1]   37   S   74          1398.0000000      0.006218001481
[TRACE:1]   37   S   75           307.5000000      0.033575007997
[TRACE:1]   37   S   76            84.5400000      0.134278031981
[TRACE:1]   37   S   77            26.9100000      0.393668093760
[TRACE:1]   37   S   78             9.4090000      0.544169129605
[TRACE:1]   38   S   79             9.4090000      0.248075019298
[TRACE:1]   38   S   80             3.5000000      0.782844060899
[TRACE:1]   39   S   81             1.0680000      1.000000000000
[TRACE:1]   40   S   82             0.4002000      1.000000000000
[TRACE:1]   41   S   83             0.1351000      1.000000000000
[TRACE:1]   42   P   84            25.3700000      0.016294995820
[TRACE:1]   42   P   85             5.7760000      0.102097973810
[TRACE:1]   42   P   86             1.7870000      0.340227912727
[TRACE:1]   42   P   87             0.6577000      0.668268828580
[TRACE:1]   43   P   88             0.2480000      1.000000000000
[TRACE:1]   44   P   89             0.0910600      1.000000000000
[TRACE:1]   45   D   90             0.7200000      1.000000000000
[TRACE:2] 
[TRACE:2]   10   S   19          9471.0000000      0.000776000185
[TRACE:2]   10   S   20          1398.0000000      0.006218001481
[TRACE:2]   10   S   21           307.5000000      0.033575007997
[TRACE:2]   10   S   22            84.5400000      0.134278031981
[TRACE:2]   10   S   23            26.9100000      0.393668093760
[TRACE:2]   10   S   24             9.4090000      0.544169129605
[TRACE:2]   11   S   25             9.4090000      0.248075019298
[TRACE:2]   11   S   26             3.5000000      0.782844060899
[TRACE:2]   12   S   27             1.0680000      1.000000000000
[TRACE:2]   13   S   28             0.4002000      1.000000000000
[TRACE:2]   14   S   29             0.1351000      1.000000000000
[TRACE:2]   15   P   30            25.3700000      0.016294995820
[TRACE:2]   15   P   31             5.7760000      0.102097973810
[TRACE:2]   15   P   32             1.7870000      0.340227912727
[TRACE:2]   15   P   33             0.6577000      0.668268828580
[TRACE:2]   16   P   34             0.2480000      1.000000000000
[TRACE:2]   17   P   35             0.0910600      1.000000000000
[TRACE:2]   18   D   36             0.7200000      1.000000000000
[TRACE:2]  C         
[TRACE:2]   19   S   37          9471.0000000      0.000776000185
[TRACE:2]   19   S   38          1398.0000000      0.006218001481
[TRACE:2]   19   S   39           307.5000000      0.033575007997
[TRACE:2]   19   S   40            84.5400000      0.134278031981
[TRACE:2]   19   S   41            26.9100000      0.393668093760
[TRACE:2]   19   S   42             9.4090000      0.544169129605
[TRACE:2]   20   S   43             9.4090000      0.248075019298
[TRACE:2]   20   S   44             3.5000000      0.782844060899
[TRACE:2]   21   S   45             1.0680000      1.000000000000
[TRACE:2]   22   S   46             0.4002000      1.000000000000
[TRACE:2]   23   S   47             0.1351000      1.000000000000
[TRACE:2]   24   P   48            25.3700000      0.016294995820
[TRACE:2]   24   P   49             5.7760000      0.102097973810
[TRACE:2]   24   P   50             1.7870000      0.340227912727
[TRACE:2]   24   P   51             0.6577000      0.668268828580
[TRACE:2]   25   P   52             0.2480000      1.000000000000
[TRACE:2]   26   P   53             0.0910600      1.000000000000
[TRACE:2]   27   D   54             0.7200000      1.000000000000
[TRACE:2]  N         
[TRACE:2]   28   S   55         13520.0000000      0.000760000458
[TRACE:2]   28   S   56          1999.0000000      0.006076003659
[TRACE:2]   28   S   57           440.0000000      0.032847019782
[TRACE:2]   28   S   58           120.9000000      0.132396079735
[TRACE:2]   28   S   59            38.4700000      0.393261236839
[TRACE:2]   28   S   60            13.4600000      0.546339329029
[TRACE:2]   29   S   61            13.4600000      0.252036044515
[TRACE:2]   29   S   62             4.9930000      0.779385137657
[TRACE:2]   30   S   63             1.5690000      1.000000000000
[TRACE:2]   31   S   64             0.5800000      1.000000000000
[TRACE:2]   32   S   65             0.1923000      1.000000000000
[TRACE:2]   33   P   66            35.9100000      0.016915996090
[TRACE:2]   33   P   67             8.4800000      0.102199976379
[TRACE:2]   33   P   68             2.7060000      0.338133921850
[TRACE:2]   33   P   69             0.9921000      0.669280845314
[TRACE:2]   34   P   70             0.3727000      1.000000000000
[TRACE:2]   35   P   71             0.1346000      1.000000000000
[TRACE:2]   36   D   72             0.9800000      1.000000000000
[TRACE:2]  C         
[TRACE:2]   37   S   73          9471.0000000      0.000776000185
[TRACE:2]   37   S   74          1398.0000000      0.006218001481
[TRACE:2]   37   S   75           307.5000000      0.033575007997
[TRACE:2]   37   S   76            84.5400000      0.134278031981
[TRACE:2]   37   S   77            26.9100000      0.393668093760
[TRACE:2]   37   S   78             9.4090000      0.544169129605
[TRACE:2]   38   S   79             9.4090000      0.248075019298
[TRACE:2]   38   S   80             3.5000000      0.782844060899
[TRACE:2]   39   S   81             1.0680000      1.000000000000
[TRACE:2]   40   S   82             0.4002000      1.000000000000
[TRACE:2]   41   S   83             0.1351000      1.000000000000
[TRACE:2]   42   P   84            25.3700000      0.016294995820
[TRACE:2]   42   P   85             5.7760000      0.102097973810
[TRACE:2]   42   P   86             1.7870000      0.340227912727
[TRACE:2]   42   P   87             0.6577000      0.668268828580
[TRACE:2]   43   P   88             0.2480000      1.000000000000
[TRACE:2]   44   P   89             0.0910600      1.000000000000
[TRACE:2]   45   D   90             0.7200000      1.000000000000
[TRACE:3] 
[TRACE:3]   10   S   19          9471.0000000      0.000776000185
[TRACE:3]   10   S   20          1398.0000000      0.006218001481
[TRACE:3]   10   S   21           307.5000000      0.033575007997
[TRACE:3]   10   S   22            84.5400000      0.134278031981
[TRACE:3]   10   S   23            26.9100000      0.393668093760
[TRACE:3]   10   S   24             9.4090000      0.544169129605
[TRACE:3]   11   S   25             9.4090000      0.248075019298
[TRACE:3]   11   S   26             3.5000000      0.782844060899
[TRACE:3]   12   S   27             1.0680000      1.000000000000
[TRACE:3]   13   S   28             0.4002000      1.000000000000
[TRACE:3]   14   S   29             0.1351000      1.000000000000
[TRACE:3]   15   P   30            25.3700000      0.016294995820
[TRACE:3]   15   P   31             5.7760000      0.102097973810
[TRACE:3]   15   P   32             1.7870000      0.340227912727
[TRACE:3]   15   P   33             0.6577000      0.668268828580
[TRACE:3]   16   P   34             0.2480000      1.000000000000
[TRACE:3]   17   P   35             0.0910600      1.000000000000
[TRACE:3]   18   D   36             0.7200000      1.000000000000
[TRACE:3]  C         
[TRACE:3]   19   S   37          9471.0000000      0.000776000185
[TRACE:3]   19   S   38          1398.0000000      0.006218001481
[TRACE:3]   19   S   39           307.5000000      0.033575007997
[TRACE:3]   19   S   40            84.5400000      0.134278031981
[TRACE:3]   19   S   41            26.9100000      0.393668093760
[TRACE:3]   19   S   42             9.4090000      0.544169129605
[TRACE:3]   20   S   43             9.4090000      0.248075019298
[TRACE:3]   20   S   44             3.5000000      0.782844060899
[TRACE:3]   21   S   45             1.0680000      1.000000000000
[TRACE:3]   22   S   46             0.4002000      1.000000000000
[TRACE:3]   23   S   47             0.1351000      1.000000000000
[TRACE:3]   24   P   48            25.3700000      0.016294995820
[TRACE:3]   24   P   49             5.7760000      0.102097973810
[TRACE:3]   24   P   50             1.7870000      0.340227912727
[TRACE:3]   24   P   51             0.6577000      0.668268828580
[TRACE:3]   25   P   52             0.2480000      1.000000000000
[TRACE:3]   26   P   53             0.0910600      1.000000000000
[TRACE:3]   27   D   54             0.7200000      1.000000000000
[TRACE:3]  N         
[TRACE:3]   28   S   55         13520.0000000      0.000760000458
[TRACE:3]   28   S   56          1999.0000000      0.006076003659
[TRACE:3]   28   S   57           440.0000000      0.032847019782
[TRACE:3]   28   S   58           120.9000000      0.132396079735
[TRACE:3]   28   S   59            38.4700000      0.393261236839
[TRACE:3]   28   S   60            13.4600000      0.546339329029
[TRACE:3]   29   S   61            13.4600000      0.252036044515
[TRACE:3]   29   S   62             4.9930000      0.779385137657
[TRACE:3]   30   S   63             1.5690000      1.000000000000
[TRACE:3]   31   S   64             0.5800000      1.000000000000
[TRACE:3]   32   S   65             0.1923000      1.000000000000
[TRACE:3]   33   P   66            35.9100000      0.016915996090
[TRACE:3]   33   P   67             8.4800000      0.102199976379
[TRACE:3]   33   P   68             2.7060000      0.338133921850
[TRACE:3]   33   P   69             0.9921000      0.669280845314
[TRACE:3]   34   P   70             0.3727000      1.000000000000
[TRACE:3]   35   P   71             0.1346000      1.000000000000
[TRACE:3]   36   D   72             0.9800000      1.000000000000
[TRACE:3]  C         
[TRACE:3]   37   S   73          9471.0000000      0.000776000185
[TRACE:3]   37   S   74          1398.0000000      0.006218001481
[TRACE:3]   37   S   75           307.5000000      0.033575007997
[TRACE:3]   37   S   76            84.5400000      0.134278031981
[TRACE:3]   37   S   77            26.9100000      0.393668093760
[TRACE:3]   37   S   78             9.4090000      0.544169129605
[TRACE:3]   38   S   79             9.4090000      0.248075019298
[TRACE:3]   38   S   80             3.5000000      0.782844060899
[TRACE:3]   39   S   81             1.0680000      1.000000000000
[TRACE:3]   40   S   82             0.4002000      1.000000000000
[TRACE:3]   41   S   83             0.1351000      1.000000000000
[TRACE:3]   42   P   84            25.3700000      0.016294995820
[TRACE:3]   42   P   85             5.7760000      0.102097973810
[TRACE:3]   42   P   86             1.7870000      0.340227912727
[TRACE:3]   42   P   87             0.6577000      0.668268828580
[TRACE:3]   43   P   88             0.2480000      1.000000000000
[TRACE:3]   44   P   89             0.0910600      1.000000000000
[TRACE:3]   45   D   90             0.7200000      1.000000000000
[TRACE:0] 
[TRACE:0]  N         
[TRACE:0]   46   S   91         13520.0000000      0.000760000458
[TRACE:0]   46   S   92          1999.0000000      0.006076003659
[TRACE:0]   46   S   93           440.0000000      0.032847019782
[TRACE:0]   46   S   94           120.9000000      0.132396079735
[TRACE:0]   46   S   95            38.4700000      0.393261236839
[TRACE:0]   46   S   96            13.4600000      0.546339329029
[TRACE:0]   47   S   97            13.4600000      0.252036044515
[TRACE:0]   47   S   98             4.9930000      0.779385137657
[TRACE:0]   48   S   99             1.5690000      1.000000000000
[TRACE:0]   49   S  100             0.5800000      1.000000000000
[TRACE:0]   50   S  101             0.1923000      1.000000000000
[TRACE:0]   51   P  102            35.9100000      0.016915996090
[TRACE:0]   51   P  103             8.4800000      0.102199976379
[...]
[SNIPER_STATS_MANAGER] Setting frequency for core 3 in DVFS domain 3 to 2128 MHz
Here we try remapping!
Vault num: 32, Bank num: 8, Row num: 64
Vault#0 Delay: 0
Vault#1 Delay: 0
Vault#2 Delay: 0
Vault#3 Delay: 0
Vault#4 Delay: 0
Vault#5 Delay: 0
Vault#6 Delay: 0
Vault#7 Delay: 0
Vault#8 Delay: 0
Vault#9 Delay: 0
Vault#10 Delay: 0
Vault#11 Delay: 0
Vault#12 Delay: 0
Vault#13 Delay: 0
Vault#14 Delay: 0
Vault#15 Delay: 0
Vault#16 Delay: 0
Vault#17 Delay: 0
Vault#18 Delay: 0
Vault#19 Delay: 0
Vault#20 Delay: 0
Vault#21 Delay: 0
Vault#22 Delay: 0
Vault#23 Delay: 0
Vault#24 Delay: 0
Vault#25 Delay: 0
Vault#26 Delay: 0
Vault#27 Delay: 0
Vault#28 Delay: 0
Vault#29 Delay: 0
Vault#30 Delay: 0
Vault#31 Delay: 0
-----and here we finish handling remapping results in cache controller! the Latency: 0
Bus Delay: 0, Process Latency: 0
---invalid_cnt: 0, total: 16384

************recordStats once at 275000
[Warning] power scale is less than 1, please check!
[Overall Power Consumption] Peak: 28.6236, Dynamic: 17.3125
[DTM Trigger] CPU_MAX(THRES): 109.737(104.000), DRAM_MAX(THRES): 89.847(85.000)
	Current DTM method: 1
[HOT!] CPU is too hot!
[SNIPER_STATS_MANAGER] Setting frequency for core 0 in DVFS domain 0 to 1596 MHz
[SNIPER_STATS_MANAGER] Setting frequency for core 1 in DVFS domain 1 to 1596 MHz
[SNIPER_STATS_MANAGER] Setting frequency for core 2 in DVFS domain 2 to 1596 MHz
[SNIPER_STATS_MANAGER] Setting frequency for core 3 in DVFS domain 3 to 1596 MHz
Here we try remapping!
Vault num: 32, Bank num: 8, Row num: 64
Vault#0 Delay: 0
Vault#1 Delay: 0
Vault#2 Delay: 0
Vault#3 Delay: 0
Vault#4 Delay: 0
Vault#5 Delay: 0
Vault#6 Delay: 0
Vault#7 Delay: 0
Vault#8 Delay: 0
Vault#9 Delay: 0
Vault#10 Delay: 0
Vault#11 Delay: 0
Vault#12 Delay: 0
Vault#13 Delay: 0
Vault#14 Delay: 0
Vault#15 Delay: 0
Vault#16 Delay: 0
Vault#17 Delay: 0
Vault#18 Delay: 0
Vault#19 Delay: 0
Vault#20 Delay: 0
Vault#21 Delay: 0
Vault#22 Delay: 0
Vault#23 Delay: 0
Vault#24 Delay: 0
Vault#25 Delay: 0
Vault#26 Delay: 0
Vault#27 Delay: 0
Vault#28 Delay: 0
Vault#29 Delay: 0
Vault#30 Delay: 0
Vault#31 Delay: 0
-----and here we finish handling remapping results in cache controller! the Latency: 0
Bus Delay: 0, Process Latency: 0
---invalid_cnt: 0, total: 16384

************recordStats once at 276000
[Warning] power scale is less than 1, please check!
[Overall Power Consumption] Peak: 16.2104, Dynamic: 9.86664
[DTM Trigger] CPU_MAX(THRES): 104.069(104.000), DRAM_MAX(THRES): 89.744(85.000)
	Current DTM method: 1
[HOT!] CPU is too hot!
[SNIPER_STATS_MANAGER] Setting frequency for core 0 in DVFS domain 0 to 1064 MHz
[SNIPER_STATS_MANAGER] Setting frequency for core 1 in DVFS domain 1 to 1064 MHz
[SNIPER_STATS_MANAGER] Setting frequency for core 2 in DVFS domain 2 to 1064 MHz
[SNIPER_STATS_MANAGER] Setting frequency for core 3 in DVFS domain 3 to 1064 MHz
Here we try remapping!
Vault num: 32, Bank num: 8, Row num: 64
Vault#0 Delay: 0
Vault#1 Delay: 0
Vault#2 Delay: 0
Vault#3 Delay: 0
Vault#4 Delay: 0
Vault#5 Delay: 0
Vault#6 Delay: 0
Vault#7 Delay: 0
Vault#8 Delay: 0
Vault#9 Delay: 0
Vault#10 Delay: 0
Vault#11 Delay: 0
Vault#12 Delay: 0
Vault#13 Delay: 0
Vault#14 Delay: 0
Vault#15 Delay: 0
Vault#16 Delay: 0
Vault#17 Delay: 0
Vault#18 Delay: 0
Vault#19 Delay: 0
Vault#20 Delay: 0
Vault#21 Delay: 0
Vault#22 Delay: 0
Vault#23 Delay: 0
Vault#24 Delay: 0
Vault#25 Delay: 0
Vault#26 Delay: 0
Vault#27 Delay: 0
Vault#28 Delay: 0
Vault#29 Delay: 0
Vault#30 Delay: 0
Vault#31 Delay: 0
-----and here we finish handling remapping results in cache controller! the Latency: 0
Bus Delay: 0, Process Latency: 0
---invalid_cnt: 0, total: 16384

************recordStats once at 277000
[Warning] power scale is less than 1, please check!
[Overall Power Consumption] Peak: 11.012, Dynamic: 7.44015
[DTM Trigger] CPU_MAX(THRES): 99.050(104.000), DRAM_MAX(THRES): 88.780(85.000)
	Current DTM method: 1
[SNIPER_STATS_MANAGER] Setting frequency for core 0 in DVFS domain 0 to 1596 MHz
[SNIPER_STATS_MANAGER] Setting frequency for core 1 in DVFS domain 1 to 1596 MHz
[SNIPER_STATS_MANAGER] Setting frequency for core 2 in DVFS domain 2 to 1596 MHz
[SNIPER_STATS_MANAGER] Setting frequency for core 3 in DVFS domain 3 to 1596 MHz
Here we try remapping!
Vault num: 32, Bank num: 8, Row num: 64
Vault#0 Delay: 0
Vault#1 Delay: 0
Vault#2 Delay: 0
Vault#3 Delay: 0
Vault#4 Delay: 0
Vault#5 Delay: 0
Vault#6 Delay: 0
Vault#7 Delay: 0
Vault#8 Delay: 0
Vault#9 Delay: 0
Vault#10 Delay: 0
Vault#11 Delay: 0
Vault#12 Delay: 0
Vault#13 Delay: 0
Vault#14 Delay: 0
Vault#15 Delay: 0
Vault#16 Delay: 0
Vault#17 Delay: 0
Vault#18 Delay: 0
Vault#19 Delay: 0
Vault#20 Delay: 0
Vault#21 Delay: 0
Vault#22 Delay: 0
Vault#23 Delay: 0
Vault#24 Delay: 0
Vault#25 Delay: 0
Vault#26 Delay: 0
Vault#27 Delay: 0
Vault#28 Delay: 0
Vault#29 Delay: 0
Vault#30 Delay: 0
Vault#31 Delay: 0
-----and here we finish handling remapping results in cache controller! the Latency: 0
Bus Delay: 0, Process Latency: 0
---invalid_cnt: 0, total: 16384

************recordStats once at 277999
[Warning] power scale is less than 1, please check!
[Overall Power Consumption] Peak: 13.1635, Dynamic: 6.74326
[DTM Trigger] CPU_MAX(THRES): 97.717(104.000), DRAM_MAX(THRES): 87.828(85.000)
	Current DTM method: 1
[SNIPER_STATS_MANAGER] Setting frequency for core 0 in DVFS domain 0 to 2128 MHz
[SNIPER_STATS_MANAGER] Setting frequency for core 1 in DVFS domain 1 to 2128 MHz
[SNIPER_STATS_MANAGER] Setting frequency for core 2 in DVFS domain 2 to 2128 MHz
[SNIPER_STATS_MANAGER] Setting frequency for core 3 in DVFS domain 3 to 2128 MHz
Here we try remapping!
Vault num: 32, Bank num: 8, Row num: 64
Vault#0 Delay: 0
Vault#1 Delay: 0
Vault#2 Delay: 0
Vault#3 Delay: 0
Vault#4 Delay: 0
Vault#5 Delay: 0
Vault#6 Delay: 0
Vault#7 Delay: 0
Vault#8 Delay: 0
Vault#9 Delay: 0
Vault#10 Delay: 0
Vault#11 Delay: 0
Vault#12 Delay: 0
Vault#13 Delay: 0
Vault#14 Delay: 0
Vault#15 Delay: 0
Vault#16 Delay: 0
Vault#17 Delay: 0
Vault#18 Delay: 0
Vault#19 Delay: 0
Vault#20 Delay: 0
Vault#21 Delay: 0
Vault#22 Delay: 0
Vault#23 Delay: 0
Vault#24 Delay: 0
Vault#25 Delay: 0
Vault#26 Delay: 0
Vault#27 Delay: 0
Vault#28 Delay: 0
Vault#29 Delay: 0
Vault#30 Delay: 0
Vault#31 Delay: 0
-----and here we finish handling remapping results in cache controller! the Latency: 0
Bus Delay: 0, Process Latency: 0
---invalid_cnt: 0, total: 16384

************recordStats once at 279000
[Warning] power scale is less than 1, please check!
[Overall Power Consumption] Peak: 23.9233, Dynamic: 12.4956
[DTM Trigger] CPU_MAX(THRES): 102.330(104.000), DRAM_MAX(THRES): 87.739(85.000)
	Current DTM method: 1
[SNIPER_STATS_MANAGER] Setting frequency for core 0 in DVFS domain 0 to 2660 MHz
[SNIPER_STATS_MANAGER] Setting frequency for core 1 in DVFS domain 1 to 2660 MHz
[SNIPER_STATS_MANAGER] Setting frequency for core 2 in DVFS domain 2 to 2660 MHz
[SNIPER_STATS_MANAGER] Setting frequency for core 3 in DVFS domain 3 to 2660 MHz
Here we try remapping!
Vault num: 32, Bank num: 8, Row num: 64
Vault#0 Delay: 0
Vault#1 Delay: 0
Vault#2 Delay: 0
Vault#3 Delay: 0
Vault#4 Delay: 0
Vault#5 Delay: 0
Vault#6 Delay: 0
Vault#7 Delay: 0
Vault#8 Delay: 0
Vault#9 Delay: 0
Vault#10 Delay: 0
Vault#11 Delay: 0
Vault#12 Delay: 0
Vault#13 Delay: 0
Vault#14 Delay: 0
Vault#15 Delay: 0
Vault#16 Delay: 0
Vault#17 Delay: 0
Vault#18 Delay: 0
Vault#19 Delay: 0
Vault#20 Delay: 0
Vault#21 Delay: 0
Vault#22 Delay: 0
Vault#23 Delay: 0
Vault#24 Delay: 0
Vault#25 Delay: 0
Vault#26 Delay: 0
Vault#27 Delay: 0
Vault#28 Delay: 0
Vault#29 Delay: 0
Vault#30 Delay: 0
Vault#31 Delay: 0
-----and here we finish handling remapping results in cache controller! the Latency: 0
Bus Delay: 0, Process Latency: 0
---invalid_cnt: 0, total: 16384
[TRACE:0] -- DONE --
[TRACE:2] -- STOP --
[TRACE:3] -- STOP --
[TRACE:1] -- STOP --
[SNIPER] Disabling performance models
[SNIPER] Leaving ROI after 17520.72 seconds

************recordStats once at 279734

************recordStats once at 279734
[Warning] power scale is less than 1, please check!
[Overall Power Consumption] Peak: 29.703, Dynamic: 15.2423
[DTM Trigger] CPU_MAX(THRES): 106.818(104.000), DRAM_MAX(THRES): 88.437(85.000)
	Current DTM method: 1
[HOT!] CPU is too hot!
[SNIPER_STATS_MANAGER] Setting frequency for core 0 in DVFS domain 0 to 2128 MHz
[SNIPER_STATS_MANAGER] Setting frequency for core 1 in DVFS domain 1 to 2128 MHz
[SNIPER_STATS_MANAGER] Setting frequency for core 2 in DVFS domain 2 to 2128 MHz
[SNIPER_STATS_MANAGER] Setting frequency for core 3 in DVFS domain 3 to 2128 MHz
Here we try remapping!
[Warning] power scale is less than 1, please check!
[Overall Power Consumption] Peak: 29.154, Dynamic: 17.95
[DTM Trigger] CPU_MAX(THRES): 108.089(104.000), DRAM_MAX(THRES): 89.151(85.000)
	Current DTM method: 1
[HOT!] CPU is too hot!
[SNIPER_STATS_MANAGER] Setting frequency for core 0 in DVFS domain 0 to 1596 MHz
[SNIPER_STATS_MANAGER] Setting frequency for core 1 in DVFS domain 1 to 1596 MHz
[SNIPER_STATS_MANAGER] Setting frequency for core 2 in DVFS domain 2 to 1596 MHz
[SNIPER_STATS_MANAGER] Setting frequency for core 3 in DVFS domain 3 to 1596 MHz
Here we try remapping!
[SNIPER] Simulated 3736.8M instructions, 446.5M cycles, 8.37 IPC
[SNIPER] Simulation speed 212.8 KIPS (53.2 KIPS / target core - 18796.7ns/instr)
[SNIPER] Setting instrumentation mode to FAST_FORWARD

************recordStats once at 279734
[Warning] power scale is less than 1, please check!
[Overall Power Consumption] Peak: 29.154, Dynamic: 17.95
[DTM Trigger] CPU_MAX(THRES): 108.744(104.000), DRAM_MAX(THRES): 89.640(85.000)
	Current DTM method: 1
[HOT!] CPU is too hot!
[SNIPER_STATS_MANAGER] Setting frequency for core 0 in DVFS domain 0 to 1064 MHz
[SNIPER_STATS_MANAGER] Setting frequency for core 1 in DVFS domain 1 to 1064 MHz
[SNIPER_STATS_MANAGER] Setting frequency for core 2 in DVFS domain 2 to 1064 MHz
[SNIPER_STATS_MANAGER] Setting frequency for core 3 in DVFS domain 3 to 1064 MHz
Here we try remapping!

 ***** [DRAM_CACHE_Result] *****

Number of memory pages: 4713
*** DRAM Total Access: 23168745, page disabled: 5737558, page miss: 7921, block misses: 6342583, miss: 6350504, miss rate: 0.274098
Block load on page miss: 0, Block write back on page miss: 0
*** DRAM Total Access In ROI: 23052605, miss: 6329649, miss rate: 0.274574
*** DRAM Remap Times: 4800 invalid times, 16077 total invalid_blocks, 0 migrate times, 0 total migrate blocks.
*** DRAM Statistics: 0 reads, 827442256 writes, 809294222 row hits, 0 ACT time, 0 PRE time, 0 RD time, 0 WR time.

 ***** [DRAM_CACHE_Result] *****

[RAMULATOR OUTPUT]./ramulator/configs/HBM-config.cfg

**Total Ticks: 34265270

**Ramulator Active Cycles: 3.57695e+06

**DRAM Cycles: 3.42653e+07

**Maximum Bandwidth: 0

Number of Incoming Requests: 6.3825e+06

**Refresh Stats**
Channel_0: , 13088, 0, 0
Channel_1: , 13088, 0, 0
Channel_2: , 13088, 0, 0
Channel_3: , 13088, 0, 0
Channel_4: , 13088, 0, 0
Channel_5: , 13088, 0, 0
Channel_6: , 13088, 0, 0
Channel_7: , 13088, 0, 0
Channel_8: , 13088, 0, 0
Channel_9: , 13088, 0, 0
Channel_10: , 13088, 0, 0
Channel_11: , 13088, 0, 0
Channel_12: , 13088, 0, 0
Channel_13: , 13088, 0, 0
Channel_14: , 13088, 0, 0
Channel_15: , 13088, 0, 0
Channel_16: , 13088, 0, 0
Channel_17: , 13088, 0, 0
Channel_18: , 13088, 0, 0
Channel_19: , 13088, 0, 0
Channel_20: , 13088, 0, 0
Channel_21: , 13088, 0, 0
Channel_22: , 13088, 0, 0
Channel_23: , 13088, 0, 0
Channel_24: , 13088, 0, 0
Channel_25: , 13088, 0, 0
Channel_26: , 13088, 0, 0
Channel_27: , 13088, 0, 0
Channel_28: , 13088, 0, 0
Channel_29: , 13088, 0, 0
Channel_30: , 13088, 0, 0
Channel_31: , 13088, 0, 0
[RAMULATOR OUTPUT]

[Latency-related OUTPUT]
Total updates: 1497736
Average number of requests during one update: 0.754847
Average time between two updates: 6.28512e+18
Average memory latency: 10.412

[Latency-related OUTPUT]
----[REMAP OUTPUT]---
*****HotAccess: 0
*****CoolAccess: 34265270
*****RemapAccess: 0
*****SingleDisableTime: 75
*****DoubleDisableTime: 0
*****RemapTime: 0
*****RecoveryTime: 11
---------------------
_______Offchip_Memory____
Total requests: 6347383
Average latency: 5.24898
_________________________
[RAMULATOR OUTPUT]./ramulator/configs/DDR4-config.cfg

**Total Ticks: 6362742

**Ramulator Active Cycles: 6.33381e+06

**DRAM Cycles: 6.36274e+06

**Maximum Bandwidth: 0

Number of Incoming Requests: 3.00719e+06

**Refresh Stats**
Channel_0: , 1631, 0, 0
[RAMULATOR OUTPUT]

[Latency-related OUTPUT]
Total updates: 0
Average number of requests during one update: 0
Average time between two updates: 2.17026e-316
Average memory latency: 0

[Latency-related OUTPUT]

 ***** [REF/AC_Result] *****
{Summary}: 3087702 Hot Accesses, 3502603 Cool Accesses.

 ***** [REF/AC_Result] *****
                     Power     Energy    Energy %
  core-core         4.45 W     1.25  J     19.17%
  core-ifetch       0.56 W     0.16  J      2.40%
  core-alu          0.77 W     0.22  J      3.32%
  core-int          0.83 W     0.23  J      3.59%
  core-fp           1.46 W     0.41  J      6.31%
  core-mem          0.69 W     0.19  J      2.99%
  core-other        0.27 W     0.08  J      1.17%
  icache            0.33 W     0.09  J      1.42%
  dcache            2.41 W     0.68  J     10.40%
  dram             11.11 W     3.11  J     47.84%
  other             0.32 W     0.09  J      1.40%

  core              9.04 W     2.53  J     38.95%
  cache             2.74 W     0.77  J     11.82%
  total            23.22 W     6.50  J    100.00%
Warning: Unable to run gnuplot to create cpi stack graphs.  Maybe gnuplot is not installed?
[SNIPER] End
[SNIPER] Elapsed time: 17561.41 seconds
[SNIPER] Running McPAT
                                     | Core 0     | Core 1     | Core 2     | Core 3    
  Instructions                       |  999999887 |  926800745 |  900655121 |  909319473
  Cycles                             |  744093770 |  744093770 |  744093770 |  744093770
  IPC                                |       1.34 |       1.25 |       1.21 |       1.22
  Time (ns)                          |  279734500 |  279734500 |  279734500 |  279734500
  Idle time (ns)                     |     468069 |     468000 |     468052 |     468100
  Idle time (%)                      |       0.2% |       0.2% |       0.2% |       0.2%
Branch predictor stats               |            |            |            |           
  num correct                        |   90345418 |   82755571 |   80639707 |   81630057
  num incorrect                      |     683332 |     682849 |     675584 |     679200
  misprediction rate                 |      0.75% |      0.82% |      0.83% |      0.83%
  mpki                               |       0.68 |       0.74 |       0.75 |       0.75
TLB Summary                          |            |            |            |           
  I-TLB                              |            |            |            |           
    num accesses                     |  155356550 |  140000011 |  136908587 |  138208879
    num misses                       |        618 |        618 |        618 |        618
    miss rate                        |      0.00% |      0.00% |      0.00% |      0.00%
    mpki                             |       0.00 |       0.00 |       0.00 |       0.00
  D-TLB                              |            |            |            |           
    num accesses                     |  410591087 |  385717940 |  374206404 |  376909186
    num misses                       |    7422365 |    5814461 |    5743246 |    5812946
    miss rate                        |      1.81% |      1.51% |      1.53% |      1.54%
    mpki                             |       7.42 |       6.27 |       6.38 |       6.39
  L2 TLB                             |            |            |            |           
    num accesses                     |    7422983 |    5815079 |    5743864 |    5813564
    num misses                       |       5215 |       4969 |       4750 |       4923
    miss rate                        |      0.07% |      0.09% |      0.08% |      0.08%
    mpki                             |       0.01 |       0.01 |       0.01 |       0.01
Cache Summary                        |            |            |            |           
  Cache L1-I                         |            |            |            |           
    num cache accesses               |  155356550 |  140000011 |  136908587 |  138208879
    num cache misses                 |     130484 |     126783 |     125934 |     126199
    miss rate                        |      0.08% |      0.09% |      0.09% |      0.09%
    mpki                             |       0.13 |       0.14 |       0.14 |       0.14
  Cache L1-D                         |            |            |            |           
    num cache accesses               |  410591087 |  385717940 |  374206404 |  376909186
    num cache misses                 |   13132583 |   12043438 |   11596256 |   11726881
    miss rate                        |      3.20% |      3.12% |      3.10% |      3.11%
    mpki                             |      13.13 |      12.99 |      12.88 |      12.90
  Cache L2                           |            |            |            |           
    num cache accesses               |   13558596 |   12460459 |   12010055 |   12141548
    num cache misses                 |    6024093 |    5282258 |    5127038 |    5140151
    miss rate                        |     44.43% |     42.39% |     42.69% |     42.34%
    mpki                             |       6.02 |       5.70 |       5.69 |       5.65
DRAM summary                         |            |            |            |           
  num dram accesses                  |   23168745 |          0 |          0 |          0
  average dram access latency (ns)   |      19.39 |        inf |        inf |        inf
  average dram queueing delay        |       0.00 |       0.00 |       0.00 |       0.00
  average dram bandwidth utilization |      0.00% |      0.00% |      0.00% |      0.00%
Coherency Traffic                    |            |            |            |           
  num loads from dram                |    5889177 |    5153593 |    5004282 |    5013806
  num loads from dram cache          |          0 |          0 |          0 |          0
  num loads from remote cache        |          0 |          0 |          0 |          0
--no-roi 
--power 
-n 4
-c cache_cpu_remap0
-d /scratch/miz087/results/isca/10-30-cachesize_cache_cpu_remap0_t104_cs128_spec_gamess
-T /home/miz087/workplace/micro_exp/benchmarks/traces/gamess/gamess.trace0,/home/miz087/workplace/micro_exp/benchmarks/traces/gamess/gamess.trace1,/home/miz087/workplace/micro_exp/benchmarks/traces/gamess/gamess.trace2,/home/miz087/workplace/micro_exp/benchmarks/traces/gamess/gamess.trace3
hehe /home/miz087/workplace/micro_exp/benchmarks/traces/gamess/gamess.trace0,/home/miz087/workplace/micro_exp/benchmarks/traces/gamess/gamess.trace1,/home/miz087/workplace/micro_exp/benchmarks/traces/gamess/gamess.trace2,/home/miz087/workplace/micro_exp/benchmarks/traces/gamess/gamess.trace3
-g --perf_model/dram_cache/cache_size=128
-g --perf_model/thermal/cpu_temp_thres=104
-g --perf_model/remap_config/on_chip_wb=false
copy HotSpot and ramulator files to /scratch/miz087/results/isca/10-30-cachesize_cache_cpu_remap0_t104_cs128_spec_gamess
haha: /home_masters/miz087/workplace/micro_exp/run-sniper -n 4 -m 'localhost' -d '/scratch/miz087/results/isca/10-30-cachesize_cache_cpu_remap0_t104_cs128_spec_gamess' -sthermalstats --power -c cache_cpu_remap0 -g --perf_model/dram_cache/cache_size=128 -g --perf_model/thermal/cpu_temp_thres=104 -g --perf_model/remap_config/on_chip_wb=false --curdir=/home_masters/miz087/workplace/micro_exp/benchmarks --traces=/home/miz087/workplace/micro_exp/benchmarks/traces/gamess/gamess.trace0,/home/miz087/workplace/micro_exp/benchmarks/traces/gamess/gamess.trace1,/home/miz087/workplace/micro_exp/benchmarks/traces/gamess/gamess.trace2,/home/miz087/workplace/micro_exp/benchmarks/traces/gamess/gamess.trace3
